LAMMPS data file via write_data, version 5 Nov 2014

35280	atoms
2	atom types

-0.0025	0.1025 xlo xhi
-0.0025	0.1025 ylo yhi
-0.02	0.03 zlo zhi

Atoms # meso/multiphase

1	2	1	1	0	1	1	4000	0.00125	0	0	-0.001875	-0.001875	-0.015	0	0	0
2	2	1	1	0	1	1	4000	0.00125	0	0	-0.001875	-0.001875	-0.005	0	0	0
3	2	1	1	0	1	1	4000	0.00125	0	0	-0.001875	-0.001875	0.005	0	0	0
4	2	1	1	0	1	1	4000	0.00125	0	0	-0.001875	-0.001875	0.015	0	0	0
5	2	1	1	0	1	1	4000	0.00125	0	0	-0.001875	-0.001875	0.025	0	0	0
6	2	1	1	0	1	1	4000	0.00125	0	0	-0.001875	-0.000625	-0.015	0	0	0
7	2	1	1	0	1	1	4000	0.00125	0	0	-0.001875	-0.000625	-0.005	0	0	0
8	2	1	1	0	1	1	4000	0.00125	0	0	-0.001875	-0.000625	0.005	0	0	0
9	2	1	1	0	1	1	4000	0.00125	0	0	-0.001875	-0.000625	0.015	0	0	0
10	2	1	1	0	1	1	4000	0.00125	0	0	-0.001875	-0.000625	0.025	0	0	0
11	2	1	1	0	1	1	4000	0.00125	0	0	-0.001875	0.000625	-0.015	0	0	0
12	2	1	1	0	1	1	4000	0.00125	0	0	-0.001875	0.000625	-0.005	0	0	0
13	2	1	1	0	1	1	4000	0.00125	0	0	-0.001875	0.000625	0.005	0	0	0
14	2	1	1	0	1	1	4000	0.00125	0	0	-0.001875	0.000625	0.015	0	0	0
15	2	1	1	0	1	1	4000	0.00125	0	0	-0.001875	0.000625	0.025	0	0	0
16	2	1	1	0	1	1	4000	0.00125	0	0	-0.001875	0.001875	-0.015	0	0	0
17	2	1	1	0	1	1	4000	0.00125	0	0	-0.001875	0.001875	-0.005	0	0	0
18	2	1	1	0	1	1	4000	0.00125	0	0	-0.001875	0.001875	0.005	0	0	0
19	2	1	1	0	1	1	4000	0.00125	0	0	-0.001875	0.001875	0.015	0	0	0
20	2	1	1	0	1	1	4000	0.00125	0	0	-0.001875	0.001875	0.025	0	0	0
21	2	1	1	0	1	1	4000	0.00125	0	0	-0.001875	0.003125	-0.015	0	0	0
22	2	1	1	0	1	1	4000	0.00125	0	0	-0.001875	0.003125	-0.005	0	0	0
23	2	1	1	0	1	1	4000	0.00125	0	0	-0.001875	0.003125	0.005	0	0	0
24	2	1	1	0	1	1	4000	0.00125	0	0	-0.001875	0.003125	0.015	0	0	0
25	2	1	1	0	1	1	4000	0.00125	0	0	-0.001875	0.003125	0.025	0	0	0
26	2	1	1	0	1	1	4000	0.00125	0	0	-0.001875	0.004375	-0.015	0	0	0
27	2	1	1	0	1	1	4000	0.00125	0	0	-0.001875	0.004375	-0.005	0	0	0
28	2	1	1	0	1	1	4000	0.00125	0	0	-0.001875	0.004375	0.005	0	0	0
29	2	1	1	0	1	1	4000	0.00125	0	0	-0.001875	0.004375	0.015	0	0	0
30	2	1	1	0	1	1	4000	0.00125	0	0	-0.001875	0.004375	0.025	0	0	0
31	2	1	1	0	1	1	4000	0.00125	0	0	-0.001875	0.005625	-0.015	0	0	0
32	2	1	1	0	1	1	4000	0.00125	0	0	-0.001875	0.005625	-0.005	0	0	0
33	2	1	1	0	1	1	4000	0.00125	0	0	-0.001875	0.005625	0.005	0	0	0
34	2	1	1	0	1	1	4000	0.00125	0	0	-0.001875	0.005625	0.015	0	0	0
35	2	1	1	0	1	1	4000	0.00125	0	0	-0.001875	0.005625	0.025	0	0	0
36	2	1	1	0	1	1	4000	0.00125	0	0	-0.001875	0.006875	-0.015	0	0	0
37	2	1	1	0	1	1	4000	0.00125	0	0	-0.001875	0.006875	-0.005	0	0	0
38	2	1	1	0	1	1	4000	0.00125	0	0	-0.001875	0.006875	0.005	0	0	0
39	2	1	1	0	1	1	4000	0.00125	0	0	-0.001875	0.006875	0.015	0	0	0
40	2	1	1	0	1	1	4000	0.00125	0	0	-0.001875	0.006875	0.025	0	0	0
41	2	1	1	0	1	1	4000	0.00125	0	0	-0.001875	0.008125	-0.015	0	0	0
42	2	1	1	0	1	1	4000	0.00125	0	0	-0.001875	0.008125	-0.005	0	0	0
43	2	1	1	0	1	1	4000	0.00125	0	0	-0.001875	0.008125	0.005	0	0	0
44	2	1	1	0	1	1	4000	0.00125	0	0	-0.001875	0.008125	0.015	0	0	0
45	2	1	1	0	1	1	4000	0.00125	0	0	-0.001875	0.008125	0.025	0	0	0
46	2	1	1	0	1	1	4000	0.00125	0	0	-0.001875	0.009375	-0.015	0	0	0
47	2	1	1	0	1	1	4000	0.00125	0	0	-0.001875	0.009375	-0.005	0	0	0
48	2	1	1	0	1	1	4000	0.00125	0	0	-0.001875	0.009375	0.005	0	0	0
49	2	1	1	0	1	1	4000	0.00125	0	0	-0.001875	0.009375	0.015	0	0	0
50	2	1	1	0	1	1	4000	0.00125	0	0	-0.001875	0.009375	0.025	0	0	0
51	2	1	1	0	1	1	4000	0.00125	0	0	-0.001875	0.010625	-0.015	0	0	0
52	2	1	1	0	1	1	4000	0.00125	0	0	-0.001875	0.010625	-0.005	0	0	0
53	2	1	1	0	1	1	4000	0.00125	0	0	-0.001875	0.010625	0.005	0	0	0
54	2	1	1	0	1	1	4000	0.00125	0	0	-0.001875	0.010625	0.015	0	0	0
55	2	1	1	0	1	1	4000	0.00125	0	0	-0.001875	0.010625	0.025	0	0	0
56	2	1	1	0	1	1	4000	0.00125	0	0	-0.001875	0.011875	-0.015	0	0	0
57	2	1	1	0	1	1	4000	0.00125	0	0	-0.001875	0.011875	-0.005	0	0	0
58	2	1	1	0	1	1	4000	0.00125	0	0	-0.001875	0.011875	0.005	0	0	0
59	2	1	1	0	1	1	4000	0.00125	0	0	-0.001875	0.011875	0.015	0	0	0
60	2	1	1	0	1	1	4000	0.00125	0	0	-0.001875	0.011875	0.025	0	0	0
61	2	1	1	0	1	1	4000	0.00125	0	0	-0.001875	0.013125	-0.015	0	0	0
62	2	1	1	0	1	1	4000	0.00125	0	0	-0.001875	0.013125	-0.005	0	0	0
63	2	1	1	0	1	1	4000	0.00125	0	0	-0.001875	0.013125	0.005	0	0	0
64	2	1	1	0	1	1	4000	0.00125	0	0	-0.001875	0.013125	0.015	0	0	0
65	2	1	1	0	1	1	4000	0.00125	0	0	-0.001875	0.013125	0.025	0	0	0
66	2	1	1	0	1	1	4000	0.00125	0	0	-0.001875	0.014375	-0.015	0	0	0
67	2	1	1	0	1	1	4000	0.00125	0	0	-0.001875	0.014375	-0.005	0	0	0
68	2	1	1	0	1	1	4000	0.00125	0	0	-0.001875	0.014375	0.005	0	0	0
69	2	1	1	0	1	1	4000	0.00125	0	0	-0.001875	0.014375	0.015	0	0	0
70	2	1	1	0	1	1	4000	0.00125	0	0	-0.001875	0.014375	0.025	0	0	0
71	2	1	1	0	1	1	4000	0.00125	0	0	-0.001875	0.015625	-0.015	0	0	0
72	2	1	1	0	1	1	4000	0.00125	0	0	-0.001875	0.015625	-0.005	0	0	0
73	2	1	1	0	1	1	4000	0.00125	0	0	-0.001875	0.015625	0.005	0	0	0
74	2	1	1	0	1	1	4000	0.00125	0	0	-0.001875	0.015625	0.015	0	0	0
75	2	1	1	0	1	1	4000	0.00125	0	0	-0.001875	0.015625	0.025	0	0	0
76	2	1	1	0	1	1	4000	0.00125	0	0	-0.001875	0.016875	-0.015	0	0	0
77	2	1	1	0	1	1	4000	0.00125	0	0	-0.001875	0.016875	-0.005	0	0	0
78	2	1	1	0	1	1	4000	0.00125	0	0	-0.001875	0.016875	0.005	0	0	0
79	2	1	1	0	1	1	4000	0.00125	0	0	-0.001875	0.016875	0.015	0	0	0
80	2	1	1	0	1	1	4000	0.00125	0	0	-0.001875	0.016875	0.025	0	0	0
81	2	1	1	0	1	1	4000	0.00125	0	0	-0.001875	0.018125	-0.015	0	0	0
82	2	1	1	0	1	1	4000	0.00125	0	0	-0.001875	0.018125	-0.005	0	0	0
83	2	1	1	0	1	1	4000	0.00125	0	0	-0.001875	0.018125	0.005	0	0	0
84	2	1	1	0	1	1	4000	0.00125	0	0	-0.001875	0.018125	0.015	0	0	0
85	2	1	1	0	1	1	4000	0.00125	0	0	-0.001875	0.018125	0.025	0	0	0
86	2	1	1	0	1	1	4000	0.00125	0	0	-0.001875	0.019375	-0.015	0	0	0
87	2	1	1	0	1	1	4000	0.00125	0	0	-0.001875	0.019375	-0.005	0	0	0
88	2	1	1	0	1	1	4000	0.00125	0	0	-0.001875	0.019375	0.005	0	0	0
89	2	1	1	0	1	1	4000	0.00125	0	0	-0.001875	0.019375	0.015	0	0	0
90	2	1	1	0	1	1	4000	0.00125	0	0	-0.001875	0.019375	0.025	0	0	0
91	2	1	1	0	1	1	4000	0.00125	0	0	-0.001875	0.020625	-0.015	0	0	0
92	2	1	1	0	1	1	4000	0.00125	0	0	-0.001875	0.020625	-0.005	0	0	0
93	2	1	1	0	1	1	4000	0.00125	0	0	-0.001875	0.020625	0.005	0	0	0
94	2	1	1	0	1	1	4000	0.00125	0	0	-0.001875	0.020625	0.015	0	0	0
95	2	1	1	0	1	1	4000	0.00125	0	0	-0.001875	0.020625	0.025	0	0	0
96	2	1	1	0	1	1	4000	0.00125	0	0	-0.001875	0.021875	-0.015	0	0	0
97	2	1	1	0	1	1	4000	0.00125	0	0	-0.001875	0.021875	-0.005	0	0	0
98	2	1	1	0	1	1	4000	0.00125	0	0	-0.001875	0.021875	0.005	0	0	0
99	2	1	1	0	1	1	4000	0.00125	0	0	-0.001875	0.021875	0.015	0	0	0
100	2	1	1	0	1	1	4000	0.00125	0	0	-0.001875	0.021875	0.025	0	0	0
101	2	1	1	0	1	1	4000	0.00125	0	0	-0.001875	0.023125	-0.015	0	0	0
102	2	1	1	0	1	1	4000	0.00125	0	0	-0.001875	0.023125	-0.005	0	0	0
103	2	1	1	0	1	1	4000	0.00125	0	0	-0.001875	0.023125	0.005	0	0	0
104	2	1	1	0	1	1	4000	0.00125	0	0	-0.001875	0.023125	0.015	0	0	0
105	2	1	1	0	1	1	4000	0.00125	0	0	-0.001875	0.023125	0.025	0	0	0
106	2	1	1	0	1	1	4000	0.00125	0	0	-0.001875	0.024375	-0.015	0	0	0
107	2	1	1	0	1	1	4000	0.00125	0	0	-0.001875	0.024375	-0.005	0	0	0
108	2	1	1	0	1	1	4000	0.00125	0	0	-0.001875	0.024375	0.005	0	0	0
109	2	1	1	0	1	1	4000	0.00125	0	0	-0.001875	0.024375	0.015	0	0	0
110	2	1	1	0	1	1	4000	0.00125	0	0	-0.001875	0.024375	0.025	0	0	0
111	2	1	1	0	1	1	4000	0.00125	0	0	-0.001875	0.025625	-0.015	0	0	0
112	2	1	1	0	1	1	4000	0.00125	0	0	-0.001875	0.025625	-0.005	0	0	0
113	2	1	1	0	1	1	4000	0.00125	0	0	-0.001875	0.025625	0.005	0	0	0
114	2	1	1	0	1	1	4000	0.00125	0	0	-0.001875	0.025625	0.015	0	0	0
115	2	1	1	0	1	1	4000	0.00125	0	0	-0.001875	0.025625	0.025	0	0	0
116	2	1	1	0	1	1	4000	0.00125	0	0	-0.001875	0.026875	-0.015	0	0	0
117	2	1	1	0	1	1	4000	0.00125	0	0	-0.001875	0.026875	-0.005	0	0	0
118	2	1	1	0	1	1	4000	0.00125	0	0	-0.001875	0.026875	0.005	0	0	0
119	2	1	1	0	1	1	4000	0.00125	0	0	-0.001875	0.026875	0.015	0	0	0
120	2	1	1	0	1	1	4000	0.00125	0	0	-0.001875	0.026875	0.025	0	0	0
121	2	1	1	0	1	1	4000	0.00125	0	0	-0.001875	0.028125	-0.015	0	0	0
122	2	1	1	0	1	1	4000	0.00125	0	0	-0.001875	0.028125	-0.005	0	0	0
123	2	1	1	0	1	1	4000	0.00125	0	0	-0.001875	0.028125	0.005	0	0	0
124	2	1	1	0	1	1	4000	0.00125	0	0	-0.001875	0.028125	0.015	0	0	0
125	2	1	1	0	1	1	4000	0.00125	0	0	-0.001875	0.028125	0.025	0	0	0
126	2	1	1	0	1	1	4000	0.00125	0	0	-0.001875	0.029375	-0.015	0	0	0
127	2	1	1	0	1	1	4000	0.00125	0	0	-0.001875	0.029375	-0.005	0	0	0
128	2	1	1	0	1	1	4000	0.00125	0	0	-0.001875	0.029375	0.005	0	0	0
129	2	1	1	0	1	1	4000	0.00125	0	0	-0.001875	0.029375	0.015	0	0	0
130	2	1	1	0	1	1	4000	0.00125	0	0	-0.001875	0.029375	0.025	0	0	0
131	2	1	1	0	1	1	4000	0.00125	0	0	-0.001875	0.030625	-0.015	0	0	0
132	2	1	1	0	1	1	4000	0.00125	0	0	-0.001875	0.030625	-0.005	0	0	0
133	2	1	1	0	1	1	4000	0.00125	0	0	-0.001875	0.030625	0.005	0	0	0
134	2	1	1	0	1	1	4000	0.00125	0	0	-0.001875	0.030625	0.015	0	0	0
135	2	1	1	0	1	1	4000	0.00125	0	0	-0.001875	0.030625	0.025	0	0	0
136	2	1	1	0	1	1	4000	0.00125	0	0	-0.001875	0.031875	-0.015	0	0	0
137	2	1	1	0	1	1	4000	0.00125	0	0	-0.001875	0.031875	-0.005	0	0	0
138	2	1	1	0	1	1	4000	0.00125	0	0	-0.001875	0.031875	0.005	0	0	0
139	2	1	1	0	1	1	4000	0.00125	0	0	-0.001875	0.031875	0.015	0	0	0
140	2	1	1	0	1	1	4000	0.00125	0	0	-0.001875	0.031875	0.025	0	0	0
141	2	1	1	0	1	1	4000	0.00125	0	0	-0.001875	0.033125	-0.015	0	0	0
142	2	1	1	0	1	1	4000	0.00125	0	0	-0.001875	0.033125	-0.005	0	0	0
143	2	1	1	0	1	1	4000	0.00125	0	0	-0.001875	0.033125	0.005	0	0	0
144	2	1	1	0	1	1	4000	0.00125	0	0	-0.001875	0.033125	0.015	0	0	0
145	2	1	1	0	1	1	4000	0.00125	0	0	-0.001875	0.033125	0.025	0	0	0
146	2	1	1	0	1	1	4000	0.00125	0	0	-0.001875	0.034375	-0.015	0	0	0
147	2	1	1	0	1	1	4000	0.00125	0	0	-0.001875	0.034375	-0.005	0	0	0
148	2	1	1	0	1	1	4000	0.00125	0	0	-0.001875	0.034375	0.005	0	0	0
149	2	1	1	0	1	1	4000	0.00125	0	0	-0.001875	0.034375	0.015	0	0	0
150	2	1	1	0	1	1	4000	0.00125	0	0	-0.001875	0.034375	0.025	0	0	0
151	2	1	1	0	1	1	4000	0.00125	0	0	-0.001875	0.035625	-0.015	0	0	0
152	2	1	1	0	1	1	4000	0.00125	0	0	-0.001875	0.035625	-0.005	0	0	0
153	2	1	1	0	1	1	4000	0.00125	0	0	-0.001875	0.035625	0.005	0	0	0
154	2	1	1	0	1	1	4000	0.00125	0	0	-0.001875	0.035625	0.015	0	0	0
155	2	1	1	0	1	1	4000	0.00125	0	0	-0.001875	0.035625	0.025	0	0	0
156	2	1	1	0	1	1	4000	0.00125	0	0	-0.001875	0.036875	-0.015	0	0	0
157	2	1	1	0	1	1	4000	0.00125	0	0	-0.001875	0.036875	-0.005	0	0	0
158	2	1	1	0	1	1	4000	0.00125	0	0	-0.001875	0.036875	0.005	0	0	0
159	2	1	1	0	1	1	4000	0.00125	0	0	-0.001875	0.036875	0.015	0	0	0
160	2	1	1	0	1	1	4000	0.00125	0	0	-0.001875	0.036875	0.025	0	0	0
161	2	1	1	0	1	1	4000	0.00125	0	0	-0.001875	0.038125	-0.015	0	0	0
162	2	1	1	0	1	1	4000	0.00125	0	0	-0.001875	0.038125	-0.005	0	0	0
163	2	1	1	0	1	1	4000	0.00125	0	0	-0.001875	0.038125	0.005	0	0	0
164	2	1	1	0	1	1	4000	0.00125	0	0	-0.001875	0.038125	0.015	0	0	0
165	2	1	1	0	1	1	4000	0.00125	0	0	-0.001875	0.038125	0.025	0	0	0
166	2	1	1	0	1	1	4000	0.00125	0	0	-0.001875	0.039375	-0.015	0	0	0
167	2	1	1	0	1	1	4000	0.00125	0	0	-0.001875	0.039375	-0.005	0	0	0
168	2	1	1	0	1	1	4000	0.00125	0	0	-0.001875	0.039375	0.005	0	0	0
169	2	1	1	0	1	1	4000	0.00125	0	0	-0.001875	0.039375	0.015	0	0	0
170	2	1	1	0	1	1	4000	0.00125	0	0	-0.001875	0.039375	0.025	0	0	0
171	2	1	1	0	1	1	4000	0.00125	0	0	-0.001875	0.040625	-0.015	0	0	0
172	2	1	1	0	1	1	4000	0.00125	0	0	-0.001875	0.040625	-0.005	0	0	0
173	2	1	1	0	1	1	4000	0.00125	0	0	-0.001875	0.040625	0.005	0	0	0
174	2	1	1	0	1	1	4000	0.00125	0	0	-0.001875	0.040625	0.015	0	0	0
175	2	1	1	0	1	1	4000	0.00125	0	0	-0.001875	0.040625	0.025	0	0	0
176	2	1	1	0	1	1	4000	0.00125	0	0	-0.001875	0.041875	-0.015	0	0	0
177	2	1	1	0	1	1	4000	0.00125	0	0	-0.001875	0.041875	-0.005	0	0	0
178	2	1	1	0	1	1	4000	0.00125	0	0	-0.001875	0.041875	0.005	0	0	0
179	2	1	1	0	1	1	4000	0.00125	0	0	-0.001875	0.041875	0.015	0	0	0
180	2	1	1	0	1	1	4000	0.00125	0	0	-0.001875	0.041875	0.025	0	0	0
181	2	1	1	0	1	1	4000	0.00125	0	0	-0.001875	0.043125	-0.015	0	0	0
182	2	1	1	0	1	1	4000	0.00125	0	0	-0.001875	0.043125	-0.005	0	0	0
183	2	1	1	0	1	1	4000	0.00125	0	0	-0.001875	0.043125	0.005	0	0	0
184	2	1	1	0	1	1	4000	0.00125	0	0	-0.001875	0.043125	0.015	0	0	0
185	2	1	1	0	1	1	4000	0.00125	0	0	-0.001875	0.043125	0.025	0	0	0
186	2	1	1	0	1	1	4000	0.00125	0	0	-0.001875	0.044375	-0.015	0	0	0
187	2	1	1	0	1	1	4000	0.00125	0	0	-0.001875	0.044375	-0.005	0	0	0
188	2	1	1	0	1	1	4000	0.00125	0	0	-0.001875	0.044375	0.005	0	0	0
189	2	1	1	0	1	1	4000	0.00125	0	0	-0.001875	0.044375	0.015	0	0	0
190	2	1	1	0	1	1	4000	0.00125	0	0	-0.001875	0.044375	0.025	0	0	0
191	2	1	1	0	1	1	4000	0.00125	0	0	-0.001875	0.045625	-0.015	0	0	0
192	2	1	1	0	1	1	4000	0.00125	0	0	-0.001875	0.045625	-0.005	0	0	0
193	2	1	1	0	1	1	4000	0.00125	0	0	-0.001875	0.045625	0.005	0	0	0
194	2	1	1	0	1	1	4000	0.00125	0	0	-0.001875	0.045625	0.015	0	0	0
195	2	1	1	0	1	1	4000	0.00125	0	0	-0.001875	0.045625	0.025	0	0	0
196	2	1	1	0	1	1	4000	0.00125	0	0	-0.001875	0.046875	-0.015	0	0	0
197	2	1	1	0	1	1	4000	0.00125	0	0	-0.001875	0.046875	-0.005	0	0	0
198	2	1	1	0	1	1	4000	0.00125	0	0	-0.001875	0.046875	0.005	0	0	0
199	2	1	1	0	1	1	4000	0.00125	0	0	-0.001875	0.046875	0.015	0	0	0
200	2	1	1	0	1	1	4000	0.00125	0	0	-0.001875	0.046875	0.025	0	0	0
201	2	1	1	0	1	1	4000	0.00125	0	0	-0.001875	0.048125	-0.015	0	0	0
202	2	1	1	0	1	1	4000	0.00125	0	0	-0.001875	0.048125	-0.005	0	0	0
203	2	1	1	0	1	1	4000	0.00125	0	0	-0.001875	0.048125	0.005	0	0	0
204	2	1	1	0	1	1	4000	0.00125	0	0	-0.001875	0.048125	0.015	0	0	0
205	2	1	1	0	1	1	4000	0.00125	0	0	-0.001875	0.048125	0.025	0	0	0
206	2	1	1	0	1	1	4000	0.00125	0	0	-0.001875	0.049375	-0.015	0	0	0
207	2	1	1	0	1	1	4000	0.00125	0	0	-0.001875	0.049375	-0.005	0	0	0
208	2	1	1	0	1	1	4000	0.00125	0	0	-0.001875	0.049375	0.005	0	0	0
209	2	1	1	0	1	1	4000	0.00125	0	0	-0.001875	0.049375	0.015	0	0	0
210	2	1	1	0	1	1	4000	0.00125	0	0	-0.001875	0.049375	0.025	0	0	0
211	2	1	1	0	1	1	4000	0.00125	0	0	-0.001875	0.050625	-0.015	0	0	0
212	2	1	1	0	1	1	4000	0.00125	0	0	-0.001875	0.050625	-0.005	0	0	0
213	2	1	1	0	1	1	4000	0.00125	0	0	-0.001875	0.050625	0.005	0	0	0
214	2	1	1	0	1	1	4000	0.00125	0	0	-0.001875	0.050625	0.015	0	0	0
215	2	1	1	0	1	1	4000	0.00125	0	0	-0.001875	0.050625	0.025	0	0	0
216	2	1	1	0	1	1	4000	0.00125	0	0	-0.001875	0.051875	-0.015	0	0	0
217	2	1	1	0	1	1	4000	0.00125	0	0	-0.001875	0.051875	-0.005	0	0	0
218	2	1	1	0	1	1	4000	0.00125	0	0	-0.001875	0.051875	0.005	0	0	0
219	2	1	1	0	1	1	4000	0.00125	0	0	-0.001875	0.051875	0.015	0	0	0
220	2	1	1	0	1	1	4000	0.00125	0	0	-0.001875	0.051875	0.025	0	0	0
221	2	1	1	0	1	1	4000	0.00125	0	0	-0.001875	0.053125	-0.015	0	0	0
222	2	1	1	0	1	1	4000	0.00125	0	0	-0.001875	0.053125	-0.005	0	0	0
223	2	1	1	0	1	1	4000	0.00125	0	0	-0.001875	0.053125	0.005	0	0	0
224	2	1	1	0	1	1	4000	0.00125	0	0	-0.001875	0.053125	0.015	0	0	0
225	2	1	1	0	1	1	4000	0.00125	0	0	-0.001875	0.053125	0.025	0	0	0
226	2	1	1	0	1	1	4000	0.00125	0	0	-0.001875	0.054375	-0.015	0	0	0
227	2	1	1	0	1	1	4000	0.00125	0	0	-0.001875	0.054375	-0.005	0	0	0
228	2	1	1	0	1	1	4000	0.00125	0	0	-0.001875	0.054375	0.005	0	0	0
229	2	1	1	0	1	1	4000	0.00125	0	0	-0.001875	0.054375	0.015	0	0	0
230	2	1	1	0	1	1	4000	0.00125	0	0	-0.001875	0.054375	0.025	0	0	0
231	2	1	1	0	1	1	4000	0.00125	0	0	-0.001875	0.055625	-0.015	0	0	0
232	2	1	1	0	1	1	4000	0.00125	0	0	-0.001875	0.055625	-0.005	0	0	0
233	2	1	1	0	1	1	4000	0.00125	0	0	-0.001875	0.055625	0.005	0	0	0
234	2	1	1	0	1	1	4000	0.00125	0	0	-0.001875	0.055625	0.015	0	0	0
235	2	1	1	0	1	1	4000	0.00125	0	0	-0.001875	0.055625	0.025	0	0	0
236	2	1	1	0	1	1	4000	0.00125	0	0	-0.001875	0.056875	-0.015	0	0	0
237	2	1	1	0	1	1	4000	0.00125	0	0	-0.001875	0.056875	-0.005	0	0	0
238	2	1	1	0	1	1	4000	0.00125	0	0	-0.001875	0.056875	0.005	0	0	0
239	2	1	1	0	1	1	4000	0.00125	0	0	-0.001875	0.056875	0.015	0	0	0
240	2	1	1	0	1	1	4000	0.00125	0	0	-0.001875	0.056875	0.025	0	0	0
241	2	1	1	0	1	1	4000	0.00125	0	0	-0.001875	0.058125	-0.015	0	0	0
242	2	1	1	0	1	1	4000	0.00125	0	0	-0.001875	0.058125	-0.005	0	0	0
243	2	1	1	0	1	1	4000	0.00125	0	0	-0.001875	0.058125	0.005	0	0	0
244	2	1	1	0	1	1	4000	0.00125	0	0	-0.001875	0.058125	0.015	0	0	0
245	2	1	1	0	1	1	4000	0.00125	0	0	-0.001875	0.058125	0.025	0	0	0
246	2	1	1	0	1	1	4000	0.00125	0	0	-0.001875	0.059375	-0.015	0	0	0
247	2	1	1	0	1	1	4000	0.00125	0	0	-0.001875	0.059375	-0.005	0	0	0
248	2	1	1	0	1	1	4000	0.00125	0	0	-0.001875	0.059375	0.005	0	0	0
249	2	1	1	0	1	1	4000	0.00125	0	0	-0.001875	0.059375	0.015	0	0	0
250	2	1	1	0	1	1	4000	0.00125	0	0	-0.001875	0.059375	0.025	0	0	0
251	2	1	1	0	1	1	4000	0.00125	0	0	-0.001875	0.060625	-0.015	0	0	0
252	2	1	1	0	1	1	4000	0.00125	0	0	-0.001875	0.060625	-0.005	0	0	0
253	2	1	1	0	1	1	4000	0.00125	0	0	-0.001875	0.060625	0.005	0	0	0
254	2	1	1	0	1	1	4000	0.00125	0	0	-0.001875	0.060625	0.015	0	0	0
255	2	1	1	0	1	1	4000	0.00125	0	0	-0.001875	0.060625	0.025	0	0	0
256	2	1	1	0	1	1	4000	0.00125	0	0	-0.001875	0.061875	-0.015	0	0	0
257	2	1	1	0	1	1	4000	0.00125	0	0	-0.001875	0.061875	-0.005	0	0	0
258	2	1	1	0	1	1	4000	0.00125	0	0	-0.001875	0.061875	0.005	0	0	0
259	2	1	1	0	1	1	4000	0.00125	0	0	-0.001875	0.061875	0.015	0	0	0
260	2	1	1	0	1	1	4000	0.00125	0	0	-0.001875	0.061875	0.025	0	0	0
261	2	1	1	0	1	1	4000	0.00125	0	0	-0.001875	0.063125	-0.015	0	0	0
262	2	1	1	0	1	1	4000	0.00125	0	0	-0.001875	0.063125	-0.005	0	0	0
263	2	1	1	0	1	1	4000	0.00125	0	0	-0.001875	0.063125	0.005	0	0	0
264	2	1	1	0	1	1	4000	0.00125	0	0	-0.001875	0.063125	0.015	0	0	0
265	2	1	1	0	1	1	4000	0.00125	0	0	-0.001875	0.063125	0.025	0	0	0
266	2	1	1	0	1	1	4000	0.00125	0	0	-0.001875	0.064375	-0.015	0	0	0
267	2	1	1	0	1	1	4000	0.00125	0	0	-0.001875	0.064375	-0.005	0	0	0
268	2	1	1	0	1	1	4000	0.00125	0	0	-0.001875	0.064375	0.005	0	0	0
269	2	1	1	0	1	1	4000	0.00125	0	0	-0.001875	0.064375	0.015	0	0	0
270	2	1	1	0	1	1	4000	0.00125	0	0	-0.001875	0.064375	0.025	0	0	0
271	2	1	1	0	1	1	4000	0.00125	0	0	-0.001875	0.065625	-0.015	0	0	0
272	2	1	1	0	1	1	4000	0.00125	0	0	-0.001875	0.065625	-0.005	0	0	0
273	2	1	1	0	1	1	4000	0.00125	0	0	-0.001875	0.065625	0.005	0	0	0
274	2	1	1	0	1	1	4000	0.00125	0	0	-0.001875	0.065625	0.015	0	0	0
275	2	1	1	0	1	1	4000	0.00125	0	0	-0.001875	0.065625	0.025	0	0	0
276	2	1	1	0	1	1	4000	0.00125	0	0	-0.001875	0.066875	-0.015	0	0	0
277	2	1	1	0	1	1	4000	0.00125	0	0	-0.001875	0.066875	-0.005	0	0	0
278	2	1	1	0	1	1	4000	0.00125	0	0	-0.001875	0.066875	0.005	0	0	0
279	2	1	1	0	1	1	4000	0.00125	0	0	-0.001875	0.066875	0.015	0	0	0
280	2	1	1	0	1	1	4000	0.00125	0	0	-0.001875	0.066875	0.025	0	0	0
281	2	1	1	0	1	1	4000	0.00125	0	0	-0.001875	0.068125	-0.015	0	0	0
282	2	1	1	0	1	1	4000	0.00125	0	0	-0.001875	0.068125	-0.005	0	0	0
283	2	1	1	0	1	1	4000	0.00125	0	0	-0.001875	0.068125	0.005	0	0	0
284	2	1	1	0	1	1	4000	0.00125	0	0	-0.001875	0.068125	0.015	0	0	0
285	2	1	1	0	1	1	4000	0.00125	0	0	-0.001875	0.068125	0.025	0	0	0
286	2	1	1	0	1	1	4000	0.00125	0	0	-0.001875	0.069375	-0.015	0	0	0
287	2	1	1	0	1	1	4000	0.00125	0	0	-0.001875	0.069375	-0.005	0	0	0
288	2	1	1	0	1	1	4000	0.00125	0	0	-0.001875	0.069375	0.005	0	0	0
289	2	1	1	0	1	1	4000	0.00125	0	0	-0.001875	0.069375	0.015	0	0	0
290	2	1	1	0	1	1	4000	0.00125	0	0	-0.001875	0.069375	0.025	0	0	0
291	2	1	1	0	1	1	4000	0.00125	0	0	-0.001875	0.070625	-0.015	0	0	0
292	2	1	1	0	1	1	4000	0.00125	0	0	-0.001875	0.070625	-0.005	0	0	0
293	2	1	1	0	1	1	4000	0.00125	0	0	-0.001875	0.070625	0.005	0	0	0
294	2	1	1	0	1	1	4000	0.00125	0	0	-0.001875	0.070625	0.015	0	0	0
295	2	1	1	0	1	1	4000	0.00125	0	0	-0.001875	0.070625	0.025	0	0	0
296	2	1	1	0	1	1	4000	0.00125	0	0	-0.001875	0.071875	-0.015	0	0	0
297	2	1	1	0	1	1	4000	0.00125	0	0	-0.001875	0.071875	-0.005	0	0	0
298	2	1	1	0	1	1	4000	0.00125	0	0	-0.001875	0.071875	0.005	0	0	0
299	2	1	1	0	1	1	4000	0.00125	0	0	-0.001875	0.071875	0.015	0	0	0
300	2	1	1	0	1	1	4000	0.00125	0	0	-0.001875	0.071875	0.025	0	0	0
301	2	1	1	0	1	1	4000	0.00125	0	0	-0.001875	0.073125	-0.015	0	0	0
302	2	1	1	0	1	1	4000	0.00125	0	0	-0.001875	0.073125	-0.005	0	0	0
303	2	1	1	0	1	1	4000	0.00125	0	0	-0.001875	0.073125	0.005	0	0	0
304	2	1	1	0	1	1	4000	0.00125	0	0	-0.001875	0.073125	0.015	0	0	0
305	2	1	1	0	1	1	4000	0.00125	0	0	-0.001875	0.073125	0.025	0	0	0
306	2	1	1	0	1	1	4000	0.00125	0	0	-0.001875	0.074375	-0.015	0	0	0
307	2	1	1	0	1	1	4000	0.00125	0	0	-0.001875	0.074375	-0.005	0	0	0
308	2	1	1	0	1	1	4000	0.00125	0	0	-0.001875	0.074375	0.005	0	0	0
309	2	1	1	0	1	1	4000	0.00125	0	0	-0.001875	0.074375	0.015	0	0	0
310	2	1	1	0	1	1	4000	0.00125	0	0	-0.001875	0.074375	0.025	0	0	0
311	2	1	1	0	1	1	4000	0.00125	0	0	-0.001875	0.075625	-0.015	0	0	0
312	2	1	1	0	1	1	4000	0.00125	0	0	-0.001875	0.075625	-0.005	0	0	0
313	2	1	1	0	1	1	4000	0.00125	0	0	-0.001875	0.075625	0.005	0	0	0
314	2	1	1	0	1	1	4000	0.00125	0	0	-0.001875	0.075625	0.015	0	0	0
315	2	1	1	0	1	1	4000	0.00125	0	0	-0.001875	0.075625	0.025	0	0	0
316	2	1	1	0	1	1	4000	0.00125	0	0	-0.001875	0.076875	-0.015	0	0	0
317	2	1	1	0	1	1	4000	0.00125	0	0	-0.001875	0.076875	-0.005	0	0	0
318	2	1	1	0	1	1	4000	0.00125	0	0	-0.001875	0.076875	0.005	0	0	0
319	2	1	1	0	1	1	4000	0.00125	0	0	-0.001875	0.076875	0.015	0	0	0
320	2	1	1	0	1	1	4000	0.00125	0	0	-0.001875	0.076875	0.025	0	0	0
321	2	1	1	0	1	1	4000	0.00125	0	0	-0.001875	0.078125	-0.015	0	0	0
322	2	1	1	0	1	1	4000	0.00125	0	0	-0.001875	0.078125	-0.005	0	0	0
323	2	1	1	0	1	1	4000	0.00125	0	0	-0.001875	0.078125	0.005	0	0	0
324	2	1	1	0	1	1	4000	0.00125	0	0	-0.001875	0.078125	0.015	0	0	0
325	2	1	1	0	1	1	4000	0.00125	0	0	-0.001875	0.078125	0.025	0	0	0
326	2	1	1	0	1	1	4000	0.00125	0	0	-0.001875	0.079375	-0.015	0	0	0
327	2	1	1	0	1	1	4000	0.00125	0	0	-0.001875	0.079375	-0.005	0	0	0
328	2	1	1	0	1	1	4000	0.00125	0	0	-0.001875	0.079375	0.005	0	0	0
329	2	1	1	0	1	1	4000	0.00125	0	0	-0.001875	0.079375	0.015	0	0	0
330	2	1	1	0	1	1	4000	0.00125	0	0	-0.001875	0.079375	0.025	0	0	0
331	2	1	1	0	1	1	4000	0.00125	0	0	-0.001875	0.080625	-0.015	0	0	0
332	2	1	1	0	1	1	4000	0.00125	0	0	-0.001875	0.080625	-0.005	0	0	0
333	2	1	1	0	1	1	4000	0.00125	0	0	-0.001875	0.080625	0.005	0	0	0
334	2	1	1	0	1	1	4000	0.00125	0	0	-0.001875	0.080625	0.015	0	0	0
335	2	1	1	0	1	1	4000	0.00125	0	0	-0.001875	0.080625	0.025	0	0	0
336	2	1	1	0	1	1	4000	0.00125	0	0	-0.001875	0.081875	-0.015	0	0	0
337	2	1	1	0	1	1	4000	0.00125	0	0	-0.001875	0.081875	-0.005	0	0	0
338	2	1	1	0	1	1	4000	0.00125	0	0	-0.001875	0.081875	0.005	0	0	0
339	2	1	1	0	1	1	4000	0.00125	0	0	-0.001875	0.081875	0.015	0	0	0
340	2	1	1	0	1	1	4000	0.00125	0	0	-0.001875	0.081875	0.025	0	0	0
341	2	1	1	0	1	1	4000	0.00125	0	0	-0.001875	0.083125	-0.015	0	0	0
342	2	1	1	0	1	1	4000	0.00125	0	0	-0.001875	0.083125	-0.005	0	0	0
343	2	1	1	0	1	1	4000	0.00125	0	0	-0.001875	0.083125	0.005	0	0	0
344	2	1	1	0	1	1	4000	0.00125	0	0	-0.001875	0.083125	0.015	0	0	0
345	2	1	1	0	1	1	4000	0.00125	0	0	-0.001875	0.083125	0.025	0	0	0
346	2	1	1	0	1	1	4000	0.00125	0	0	-0.001875	0.084375	-0.015	0	0	0
347	2	1	1	0	1	1	4000	0.00125	0	0	-0.001875	0.084375	-0.005	0	0	0
348	2	1	1	0	1	1	4000	0.00125	0	0	-0.001875	0.084375	0.005	0	0	0
349	2	1	1	0	1	1	4000	0.00125	0	0	-0.001875	0.084375	0.015	0	0	0
350	2	1	1	0	1	1	4000	0.00125	0	0	-0.001875	0.084375	0.025	0	0	0
351	2	1	1	0	1	1	4000	0.00125	0	0	-0.001875	0.085625	-0.015	0	0	0
352	2	1	1	0	1	1	4000	0.00125	0	0	-0.001875	0.085625	-0.005	0	0	0
353	2	1	1	0	1	1	4000	0.00125	0	0	-0.001875	0.085625	0.005	0	0	0
354	2	1	1	0	1	1	4000	0.00125	0	0	-0.001875	0.085625	0.015	0	0	0
355	2	1	1	0	1	1	4000	0.00125	0	0	-0.001875	0.085625	0.025	0	0	0
356	2	1	1	0	1	1	4000	0.00125	0	0	-0.001875	0.086875	-0.015	0	0	0
357	2	1	1	0	1	1	4000	0.00125	0	0	-0.001875	0.086875	-0.005	0	0	0
358	2	1	1	0	1	1	4000	0.00125	0	0	-0.001875	0.086875	0.005	0	0	0
359	2	1	1	0	1	1	4000	0.00125	0	0	-0.001875	0.086875	0.015	0	0	0
360	2	1	1	0	1	1	4000	0.00125	0	0	-0.001875	0.086875	0.025	0	0	0
361	2	1	1	0	1	1	4000	0.00125	0	0	-0.001875	0.088125	-0.015	0	0	0
362	2	1	1	0	1	1	4000	0.00125	0	0	-0.001875	0.088125	-0.005	0	0	0
363	2	1	1	0	1	1	4000	0.00125	0	0	-0.001875	0.088125	0.005	0	0	0
364	2	1	1	0	1	1	4000	0.00125	0	0	-0.001875	0.088125	0.015	0	0	0
365	2	1	1	0	1	1	4000	0.00125	0	0	-0.001875	0.088125	0.025	0	0	0
366	2	1	1	0	1	1	4000	0.00125	0	0	-0.001875	0.089375	-0.015	0	0	0
367	2	1	1	0	1	1	4000	0.00125	0	0	-0.001875	0.089375	-0.005	0	0	0
368	2	1	1	0	1	1	4000	0.00125	0	0	-0.001875	0.089375	0.005	0	0	0
369	2	1	1	0	1	1	4000	0.00125	0	0	-0.001875	0.089375	0.015	0	0	0
370	2	1	1	0	1	1	4000	0.00125	0	0	-0.001875	0.089375	0.025	0	0	0
371	2	1	1	0	1	1	4000	0.00125	0	0	-0.001875	0.090625	-0.015	0	0	0
372	2	1	1	0	1	1	4000	0.00125	0	0	-0.001875	0.090625	-0.005	0	0	0
373	2	1	1	0	1	1	4000	0.00125	0	0	-0.001875	0.090625	0.005	0	0	0
374	2	1	1	0	1	1	4000	0.00125	0	0	-0.001875	0.090625	0.015	0	0	0
375	2	1	1	0	1	1	4000	0.00125	0	0	-0.001875	0.090625	0.025	0	0	0
376	2	1	1	0	1	1	4000	0.00125	0	0	-0.001875	0.091875	-0.015	0	0	0
377	2	1	1	0	1	1	4000	0.00125	0	0	-0.001875	0.091875	-0.005	0	0	0
378	2	1	1	0	1	1	4000	0.00125	0	0	-0.001875	0.091875	0.005	0	0	0
379	2	1	1	0	1	1	4000	0.00125	0	0	-0.001875	0.091875	0.015	0	0	0
380	2	1	1	0	1	1	4000	0.00125	0	0	-0.001875	0.091875	0.025	0	0	0
381	2	1	1	0	1	1	4000	0.00125	0	0	-0.001875	0.093125	-0.015	0	0	0
382	2	1	1	0	1	1	4000	0.00125	0	0	-0.001875	0.093125	-0.005	0	0	0
383	2	1	1	0	1	1	4000	0.00125	0	0	-0.001875	0.093125	0.005	0	0	0
384	2	1	1	0	1	1	4000	0.00125	0	0	-0.001875	0.093125	0.015	0	0	0
385	2	1	1	0	1	1	4000	0.00125	0	0	-0.001875	0.093125	0.025	0	0	0
386	2	1	1	0	1	1	4000	0.00125	0	0	-0.001875	0.094375	-0.015	0	0	0
387	2	1	1	0	1	1	4000	0.00125	0	0	-0.001875	0.094375	-0.005	0	0	0
388	2	1	1	0	1	1	4000	0.00125	0	0	-0.001875	0.094375	0.005	0	0	0
389	2	1	1	0	1	1	4000	0.00125	0	0	-0.001875	0.094375	0.015	0	0	0
390	2	1	1	0	1	1	4000	0.00125	0	0	-0.001875	0.094375	0.025	0	0	0
391	2	1	1	0	1	1	4000	0.00125	0	0	-0.001875	0.095625	-0.015	0	0	0
392	2	1	1	0	1	1	4000	0.00125	0	0	-0.001875	0.095625	-0.005	0	0	0
393	2	1	1	0	1	1	4000	0.00125	0	0	-0.001875	0.095625	0.005	0	0	0
394	2	1	1	0	1	1	4000	0.00125	0	0	-0.001875	0.095625	0.015	0	0	0
395	2	1	1	0	1	1	4000	0.00125	0	0	-0.001875	0.095625	0.025	0	0	0
396	2	1	1	0	1	1	4000	0.00125	0	0	-0.001875	0.096875	-0.015	0	0	0
397	2	1	1	0	1	1	4000	0.00125	0	0	-0.001875	0.096875	-0.005	0	0	0
398	2	1	1	0	1	1	4000	0.00125	0	0	-0.001875	0.096875	0.005	0	0	0
399	2	1	1	0	1	1	4000	0.00125	0	0	-0.001875	0.096875	0.015	0	0	0
400	2	1	1	0	1	1	4000	0.00125	0	0	-0.001875	0.096875	0.025	0	0	0
401	2	1	1	0	1	1	4000	0.00125	0	0	-0.001875	0.098125	-0.015	0	0	0
402	2	1	1	0	1	1	4000	0.00125	0	0	-0.001875	0.098125	-0.005	0	0	0
403	2	1	1	0	1	1	4000	0.00125	0	0	-0.001875	0.098125	0.005	0	0	0
404	2	1	1	0	1	1	4000	0.00125	0	0	-0.001875	0.098125	0.015	0	0	0
405	2	1	1	0	1	1	4000	0.00125	0	0	-0.001875	0.098125	0.025	0	0	0
406	2	1	1	0	1	1	4000	0.00125	0	0	-0.001875	0.099375	-0.015	0	0	0
407	2	1	1	0	1	1	4000	0.00125	0	0	-0.001875	0.099375	-0.005	0	0	0
408	2	1	1	0	1	1	4000	0.00125	0	0	-0.001875	0.099375	0.005	0	0	0
409	2	1	1	0	1	1	4000	0.00125	0	0	-0.001875	0.099375	0.015	0	0	0
410	2	1	1	0	1	1	4000	0.00125	0	0	-0.001875	0.099375	0.025	0	0	0
411	2	1	1	0	1	1	4000	0.00125	0	0	-0.001875	0.100625	-0.015	0	0	0
412	2	1	1	0	1	1	4000	0.00125	0	0	-0.001875	0.100625	-0.005	0	0	0
413	2	1	1	0	1	1	4000	0.00125	0	0	-0.001875	0.100625	0.005	0	0	0
414	2	1	1	0	1	1	4000	0.00125	0	0	-0.001875	0.100625	0.015	0	0	0
415	2	1	1	0	1	1	4000	0.00125	0	0	-0.001875	0.100625	0.025	0	0	0
416	2	1	1	0	1	1	4000	0.00125	0	0	-0.001875	0.101875	-0.015	0	0	0
417	2	1	1	0	1	1	4000	0.00125	0	0	-0.001875	0.101875	-0.005	0	0	0
418	2	1	1	0	1	1	4000	0.00125	0	0	-0.001875	0.101875	0.005	0	0	0
419	2	1	1	0	1	1	4000	0.00125	0	0	-0.001875	0.101875	0.015	0	0	0
420	2	1	1	0	1	1	4000	0.00125	0	0	-0.001875	0.101875	0.025	0	0	0
421	2	1	1	0	1	1	4000	0.00125	0	0	-0.000625	-0.001875	-0.015	0	0	0
422	2	1	1	0	1	1	4000	0.00125	0	0	-0.000625	-0.001875	-0.005	0	0	0
423	2	1	1	0	1	1	4000	0.00125	0	0	-0.000625	-0.001875	0.005	0	0	0
424	2	1	1	0	1	1	4000	0.00125	0	0	-0.000625	-0.001875	0.015	0	0	0
425	2	1	1	0	1	1	4000	0.00125	0	0	-0.000625	-0.001875	0.025	0	0	0
426	2	1	1	0	1	1	4000	0.00125	0	0	-0.000625	-0.000625	-0.015	0	0	0
427	2	1	1	0	1	1	4000	0.00125	0	0	-0.000625	-0.000625	-0.005	0	0	0
428	2	1	1	0	1	1	4000	0.00125	0	0	-0.000625	-0.000625	0.005	0	0	0
429	2	1	1	0	1	1	4000	0.00125	0	0	-0.000625	-0.000625	0.015	0	0	0
430	2	1	1	0	1	1	4000	0.00125	0	0	-0.000625	-0.000625	0.025	0	0	0
431	2	1	1	0	1	1	4000	0.00125	0	0	-0.000625	0.000625	-0.015	0	0	0
432	2	1	1	0	1	1	4000	0.00125	0	0	-0.000625	0.000625	-0.005	0	0	0
433	2	1	1	0	1	1	4000	0.00125	0	0	-0.000625	0.000625	0.005	0	0	0
434	2	1	1	0	1	1	4000	0.00125	0	0	-0.000625	0.000625	0.015	0	0	0
435	2	1	1	0	1	1	4000	0.00125	0	0	-0.000625	0.000625	0.025	0	0	0
436	2	1	1	0	1	1	4000	0.00125	0	0	-0.000625	0.001875	-0.015	0	0	0
437	2	1	1	0	1	1	4000	0.00125	0	0	-0.000625	0.001875	-0.005	0	0	0
438	2	1	1	0	1	1	4000	0.00125	0	0	-0.000625	0.001875	0.005	0	0	0
439	2	1	1	0	1	1	4000	0.00125	0	0	-0.000625	0.001875	0.015	0	0	0
440	2	1	1	0	1	1	4000	0.00125	0	0	-0.000625	0.001875	0.025	0	0	0
441	2	1	1	0	1	1	4000	0.00125	0	0	-0.000625	0.003125	-0.015	0	0	0
442	2	1	1	0	1	1	4000	0.00125	0	0	-0.000625	0.003125	-0.005	0	0	0
443	2	1	1	0	1	1	4000	0.00125	0	0	-0.000625	0.003125	0.005	0	0	0
444	2	1	1	0	1	1	4000	0.00125	0	0	-0.000625	0.003125	0.015	0	0	0
445	2	1	1	0	1	1	4000	0.00125	0	0	-0.000625	0.003125	0.025	0	0	0
446	2	1	1	0	1	1	4000	0.00125	0	0	-0.000625	0.004375	-0.015	0	0	0
447	2	1	1	0	1	1	4000	0.00125	0	0	-0.000625	0.004375	-0.005	0	0	0
448	2	1	1	0	1	1	4000	0.00125	0	0	-0.000625	0.004375	0.005	0	0	0
449	2	1	1	0	1	1	4000	0.00125	0	0	-0.000625	0.004375	0.015	0	0	0
450	2	1	1	0	1	1	4000	0.00125	0	0	-0.000625	0.004375	0.025	0	0	0
451	2	1	1	0	1	1	4000	0.00125	0	0	-0.000625	0.005625	-0.015	0	0	0
452	2	1	1	0	1	1	4000	0.00125	0	0	-0.000625	0.005625	-0.005	0	0	0
453	2	1	1	0	1	1	4000	0.00125	0	0	-0.000625	0.005625	0.005	0	0	0
454	2	1	1	0	1	1	4000	0.00125	0	0	-0.000625	0.005625	0.015	0	0	0
455	2	1	1	0	1	1	4000	0.00125	0	0	-0.000625	0.005625	0.025	0	0	0
456	2	1	1	0	1	1	4000	0.00125	0	0	-0.000625	0.006875	-0.015	0	0	0
457	2	1	1	0	1	1	4000	0.00125	0	0	-0.000625	0.006875	-0.005	0	0	0
458	2	1	1	0	1	1	4000	0.00125	0	0	-0.000625	0.006875	0.005	0	0	0
459	2	1	1	0	1	1	4000	0.00125	0	0	-0.000625	0.006875	0.015	0	0	0
460	2	1	1	0	1	1	4000	0.00125	0	0	-0.000625	0.006875	0.025	0	0	0
461	2	1	1	0	1	1	4000	0.00125	0	0	-0.000625	0.008125	-0.015	0	0	0
462	2	1	1	0	1	1	4000	0.00125	0	0	-0.000625	0.008125	-0.005	0	0	0
463	2	1	1	0	1	1	4000	0.00125	0	0	-0.000625	0.008125	0.005	0	0	0
464	2	1	1	0	1	1	4000	0.00125	0	0	-0.000625	0.008125	0.015	0	0	0