ITEM: TIMESTEP
0
ITEM: NUMBER OF ATOMS
3000
ITEM: BOX BOUNDS pp pp pp
0 0.2
0 0.5
-1e-05 1e-05
ITEM: ATOMS type id x y z vx vy vz fx fy fz p rho v_sigmaXX v_sigmaXY v_sigmaYX v_sigmaYY v_epsilonXX v_epsilonXY v_epsilonYX v_epsilonYY v_artStressXX v_artStressXY v_artStressYX v_artStressYY 
1 2 0.093 0.22 0 0 0 0 0 -0.0774009 0 -0 7890 0 0 0 0 0 0 0 0 0 0 0 0 
1 3 0.094 0.22 0 0 0 0 0 -0.0774009 0 -0 7890 0 0 0 0 0 0 0 0 0 0 0 0 
1 4 0.095 0.22 0 0 0 0 0 -0.0774009 0 -0 7890 0 0 0 0 0 0 0 0 0 0 0 0 
1 5 0.096 0.22 0 0 0 0 0 -0.0774009 0 -0 7890 0 0 0 0 0 0 0 0 0 0 0 0 
1 6 0.097 0.22 0 0 0 0 0 -0.0774009 0 -0 7890 0 0 0 0 0 0 0 0 0 0 0 0 
1 7 0.098 0.22 0 0 0 0 0 -0.0774009 0 -0 7890 0 0 0 0 0 0 0 0 0 0 0 0 
1 8 0.099 0.22 0 0 0 0 0 -0.0774009 0 -0 7890 0 0 0 0 0 0 0 0 0 0 0 0 
1 1 0.1 0.219 0 0 0 0 0 -0.0774009 0 -0 7890 0 0 0 0 0 0 0 0 0 0 0 0 
1 9 0.1 0.22 0 0 0 0 0 -0.0774009 0 -0 7890 0 0 0 0 0 0 0 0 0 0 0 0 
1 10 0.101 0.22 0 0 0 0 0 -0.0774009 0 -0 7890 0 0 0 0 0 0 0 0 0 0 0 0 
1 11 0.102 0.22 0 0 0 0 0 -0.0774009 0 -0 7890 0 0 0 0 0 0 0 0 0 0 0 0 
1 12 0.103 0.22 0 0 0 0 0 -0.0774009 0 -0 7890 0 0 0 0 0 0 0 0 0 0 0 0 
1 13 0.104 0.22 0 0 0 0 0 -0.0774009 0 -0 7890 0 0 0 0 0 0 0 0 0 0 0 0 
1 14 0.105 0.22 0 0 0 0 0 -0.0774009 0 -0 7890 0 0 0 0 0 0 0 0 0 0 0 0 
1 15 0.106 0.22 0 0 0 0 0 -0.0774009 0 -0 7890 0 0 0 0 0 0 0 0 0 0 0 0 
1 16 0.107 0.22 0 0 0 0 0 -0.0774009 0 -0 7890 0 0 0 0 0 0 0 0 0 0 0 0 
1 17 0.09 0.221 0 0 0 0 0 -0.0774009 0 -0 7890 0 0 0 0 0 0 0 0 0 0 0 0 
1 18 0.091 0.221 0 0 0 0 0 -0.0774009 0 -0 7890 0 0 0 0 0 0 0 0 0 0 0 0 
1 19 0.092 0.221 0 0 0 0 0 -0.0774009 0 -0 7890 0 0 0 0 0 0 0 0 0 0 0 0 
1 20 0.093 0.221 0 0 0 0 0 -0.0774009 0 -0 7890 0 0 0 0 0 0 0 0 0 0 0 0 
1 21 0.094 0.221 0 0 0 0 0 -0.0774009 0 -0 7890 0 0 0 0 0 0 0 0 0 0 0 0 
1 22 0.095 0.221 0 0 0 0 0 -0.0774009 0 -0 7890 0 0 0 0 0 0 0 0 0 0 0 0 
1 23 0.096 0.221 0 0 0 0 0 -0.0774009 0 -0 7890 0 0 0 0 0 0 0 0 0 0 0 0 
1 24 0.097 0.221 0 0 0 0 0 -0.0774009 0 -0 7890 0 0 0 0 0 0 0 0 0 0 0 0 
1 25 0.098 0.221 0 0 0 0 0 -0.0774009 0 -0 7890 0 0 0 0 0 0 0 0 0 0 0 0 
1 26 0.099 0.221 0 0 0 0 0 -0.0774009 0 -0 7890 0 0 0 0 0 0 0 0 0 0 0 0 
1 27 0.1 0.221 0 0 0 0 0 -0.0774009 0 -0 7890 0 0 0 0 0 0 0 0 0 0 0 0 
1 28 0.101 0.221 0 0 0 0 0 -0.0774009 0 -0 7890 0 0 0 0 0 0 0 0 0 0 0 0 
1 29 0.102 0.221 0 0 0 0 0 -0.0774009 0 -0 7890 0 0 0 0 0 0 0 0 0 0 0 0 
1 30 0.103 0.221 0 0 0 0 0 -0.0774009 0 -0 7890 0 0 0 0 0 0 0 0 0 0 0 0 
1 31 0.104 0.221 0 0 0 0 0 -0.0774009 0 -0 7890 0 0 0 0 0 0 0 0 0 0 0 0 
1 32 0.105 0.221 0 0 0 0 0 -0.0774009 0 -0 7890 0 0 0 0 0 0 0 0 0 0 0 0 
1 33 0.106 0.221 0 0 0 0 0 -0.0774009 0 -0 7890 0 0 0 0 0 0 0 0 0 0 0 0 
1 34 0.107 0.221 0 0 0 0 0 -0.0774009 0 -0 7890 0 0 0 0 0 0 0 0 0 0 0 0 
1 35 0.108 0.221 0 0 0 0 0 -0.0774009 0 -0 7890 0 0 0 0 0 0 0 0 0 0 0 0 
1 36 0.109 0.221 0 0 0 0 0 -0.0774009 0 -0 7890 0 0 0 0 0 0 0 0 0 0 0 0 
1 37 0.11 0.221 0 0 0 0 0 -0.0774009 0 -0 7890 0 0 0 0 0 0 0 0 0 0 0 0 
1 65 0.085 0.223 0 0 0 0 0 -0.0774009 0 -0 7890 0 0 0 0 0 0 0 0 0 0 0 0 
1 38 0.087 0.222 0 0 0 0 0 -0.0774009 0 -0 7890 0 0 0 0 0 0 0 0 0 0 0 0 
1 66 0.086 0.223 0 0 0 0 0 -0.0774009 0 -0 7890 0 0 0 0 0 0 0 0 0 0 0 0 
1 67 0.087 0.223 0 0 0 0 0 -0.0774009 0 -0 7890 0 0 0 0 0 0 0 0 0 0 0 0 
1 39 0.088 0.222 0 0 0 0 0 -0.0774009 0 -0 7890 0 0 0 0 0 0 0 0 0 0 0 0 
1 68 0.088 0.223 0 0 0 0 0 -0.0774009 0 -0 7890 0 0 0 0 0 0 0 0 0 0 0 0 
1 40 0.089 0.222 0 0 0 0 0 -0.0774009 0 -0 7890 0 0 0 0 0 0 0 0 0 0 0 0 
1 41 0.09 0.222 0 0 0 0 0 -0.0774009 0 -0 7890 0 0 0 0 0 0 0 0 0 0 0 0 
1 69 0.089 0.223 0 0 0 0 0 -0.0774009 0 -0 7890 0 0 0 0 0 0 0 0 0 0 0 0 
1 70 0.09 0.223 0 0 0 0 0 -0.0774009 0 -0 7890 0 0 0 0 0 0 0 0 0 0 0 0 
1 42 0.091 0.222 0 0 0 0 0 -0.0774009 0 -0 7890 0 0 0 0 0 0 0 0 0 0 0 0 
1 71 0.091 0.223 0 0 0 0 0 -0.0774009 0 -0 7890 0 0 0 0 0 0 0 0 0 0 0 0 
1 43 0.092 0.222 0 0 0 0 0 -0.0774009 0 -0 7890 0 0 0 0 0 0 0 0 0 0 0 0 
1 44 0.093 0.222 0 0 0 0 0 -0.0774009 0 -0 7890 0 0 0 0 0 0 0 0 0 0 0 0 
1 72 0.092 0.223 0 0 0 0 0 -0.0774009 0 -0 7890 0 0 0 0 0 0 0 0 0 0 0 0 
1 73 0.093 0.223 0 0 0 0 0 -0.0774009 0 -0 7890 0 0 0 0 0 0 0 0 0 0 0 0 
1 45 0.094 0.222 0 0 0 0 0 -0.0774009 0 -0 7890 0 0 0 0 0 0 0 0 0 0 0 0 
1 74 0.094 0.223 0 0 0 0 0 -0.0774009 0 -0 7890 0 0 0 0 0 0 0 0 0 0 0 0 
1 46 0.095 0.222 0 0 0 0 0 -0.0774009 0 -0 7890 0 0 0 0 0 0 0 0 0 0 0 0 
1 47 0.096 0.222 0 0 0 0 0 -0.0774009 0 -0 7890 0 0 0 0 0 0 0 0 0 0 0 0 
1 75 0.095 0.223 0 0 0 0 0 -0.0774009 0 -0 7890 0 0 0 0 0 0 0 0 0 0 0 0 
1 76 0.096 0.223 0 0 0 0 0 -0.0774009 0 -0 7890 0 0 0 0 0 0 0 0 0 0 0 0 
1 48 0.097 0.222 0 0 0 0 0 -0.0774009 0 -0 7890 0 0 0 0 0 0 0 0 0 0 0 0 
1 77 0.097 0.223 0 0 0 0 0 -0.0774009 0 -0 7890 0 0 0 0 0 0 0 0 0 0 0 0 
1 49 0.098 0.222 0 0 0 0 0 -0.0774009 0 -0 7890 0 0 0 0 0 0 0 0 0 0 0 0 
1 50 0.099 0.222 0 0 0 0 0 -0.0774009 0 -0 7890 0 0 0 0 0 0 0 0 0 0 0 0 
1 78 0.098 0.223 0 0 0 0 0 -0.0774009 0 -0 7890 0 0 0 0 0 0 0 0 0 0 0 0 
1 79 0.099 0.223 0 0 0 0 0 -0.0774009 0 -0 7890 0 0 0 0 0 0 0 0 0 0 0 0 
1 51 0.1 0.222 0 0 0 0 0 -0.0774009 0 -0 7890 0 0 0 0 0 0 0 0 0 0 0 0 
1 80 0.1 0.223 0 0 0 0 0 -0.0774009 0 -0 7890 0 0 0 0 0 0 0 0 0 0 0 0 
1 52 0.101 0.222 0 0 0 0 0 -0.0774009 0 -0 7890 0 0 0 0 0 0 0 0 0 0 0 0 
1 53 0.102 0.222 0 0 0 0 0 -0.0774009 0 -0 7890 0 0 0 0 0 0 0 0 0 0 0 0 
1 81 0.101 0.223 0 0 0 0 0 -0.0774009 0 -0 7890 0 0 0 0 0 0 0 0 0 0 0 0 
1 82 0.102 0.223 0 0 0 0 0 -0.0774009 0 -0 7890 0 0 0 0 0 0 0 0 0 0 0 0 
1 54 0.103 0.222 0 0 0 0 0 -0.0774009 0 -0 7890 0 0 0 0 0 0 0 0 0 0 0 0 
1 83 0.103 0.223 0 0 0 0 0 -0.0774009 0 -0 7890 0 0 0 0 0 0 0 0 0 0 0 0 
1 55 0.104 0.222 0 0 0 0 0 -0.0774009 0 -0 7890 0 0 0 0 0 0 0 0 0 0 0 0 
1 56 0.105 0.222 0 0 0 0 0 -0.0774009 0 -0 7890 0 0 0 0 0 0 0 0 0 0 0 0 
1 84 0.104 0.223 0 0 0 0 0 -0.0774009 0 -0 7890 0 0 0 0 0 0 0 0 0 0 0 0 
1 85 0.105 0.223 0 0 0 0 0 -0.0774009 0 -0 7890 0 0 0 0 0 0 0 0 0 0 0 0 
1 57 0.106 0.222 0 0 0 0 0 -0.0774009 0 -0 7890 0 0 0 0 0 0 0 0 0 0 0 0 
1 86 0.106 0.223 0 0 0 0 0 -0.0774009 0 -0 7890 0 0 0 0 0 0 0 0 0 0 0 0 
1 58 0.107 0.222 0 0 0 0 0 -0.0774009 0 -0 7890 0 0 0 0 0 0 0 0 0 0 0 0 
1 59 0.108 0.222 0 0 0 0 0 -0.0774009 0 -0 7890 0 0 0 0 0 0 0 0 0 0 0 0 
1 87 0.107 0.223 0 0 0 0 0 -0.0774009 0 -0 7890 0 0 0 0 0 0 0 0 0 0 0 0 
1 88 0.108 0.223 0 0 0 0 0 -0.0774009 0 -0 7890 0 0 0 0 0 0 0 0 0 0 0 0 
1 60 0.109 0.222 0 0 0 0 0 -0.0774009 0 -0 7890 0 0 0 0 0 0 0 0 0 0 0 0 
1 89 0.109 0.223 0 0 0 0 0 -0.0774009 0 -0 7890 0 0 0 0 0 0 0 0 0 0 0 0 
1 61 0.11 0.222 0 0 0 0 0 -0.0774009 0 -0 7890 0 0 0 0 0 0 0 0 0 0 0 0 
1 62 0.111 0.222 0 0 0 0 0 -0.0774009 0 -0 7890 0 0 0 0 0 0 0 0 0 0 0 0 
1 90 0.11 0.223 0 0 0 0 0 -0.0774009 0 -0 7890 0 0 0 0 0 0 0 0 0 0 0 0 
1 91 0.111 0.223 0 0 0 0 0 -0.0774009 0 -0 7890 0 0 0 0 0 0 0 0 0 0 0 0 
1 63 0.112 0.222 0 0 0 0 0 -0.0774009 0 -0 7890 0 0 0 0 0 0 0 0 0 0 0 0 
1 92 0.112 0.223 0 0 0 0 0 -0.0774009 0 -0 7890 0 0 0 0 0 0 0 0 0 0 0 0 
1 64 0.113 0.222 0 0 0 0 0 -0.0774009 0 -0 7890 0 0 0 0 0 0 0 0 0 0 0 0 
1 93 0.113 0.223 0 0 0 0 0 -0.0774009 0 -0 7890 0 0 0 0 0 0 0 0 0 0 0 0 
1 94 0.114 0.223 0 0 0 0 0 -0.0774009 0 -0 7890 0 0 0 0 0 0 0 0 0 0 0 0 
1 95 0.115 0.223 0 0 0 0 0 -0.0774009 0 -0 7890 0 0 0 0 0 0 0 0 0 0 0 0 
1 96 0.084 0.224 0 0 0 0 0 -0.0774009 0 -0 7890 0 0 0 0 0 0 0 0 0 0 0 0 
1 97 0.085 0.224 0 0 0 0 0 -0.0774009 0 -0 7890 0 0 0 0 0 0 0 0 0 0 0 0 
1 98 0.086 0.224 0 0 0 0 0 -0.0774009 0 -0 7890 0 0 0 0 0 0 0 0 0 0 0 0 
1 99 0.087 0.224 0 0 0 0 0 -0.0774009 0 -0 7890 0 0 0 0 0 0 0 0 0 0 0 0 
1 100 0.088 0.224 0 0 0 0 0 -0.0774009 0 -0 7890 0 0 0 0 0 0 0 0 0 0 0 0 
1 101 0.089 0.224 0 0 0 0 0 -0.0774009 0 -0 7890 0 0 0 0 0 0 0 0 0 0 0 0 
1 102 0.09 0.224 0 0 0 0 0 -0.0774009 0 -0 7890 0 0 0 0 0 0 0 0 0 0 0 0 
1 103 0.091 0.224 0 0 0 0 0 -0.0774009 0 -0 7890 0 0 0 0 0 0 0 0 0 0 0 0 
1 104 0.092 0.224 0 0 0 0 0 -0.0774009 0 -0 7890 0 0 0 0 0 0 0 0 0 0 0 0 
1 105 0.093 0.224 0 0 0 0 0 -0.0774009 0 -0 7890 0 0 0 0 0 0 0 0 0 0 0 0 
1 106 0.094 0.224 0 0 0 0 0 -0.0774009 0 -0 7890 0 0 0 0 0 0 0 0 0 0 0 0 
1 107 0.095 0.224 0 0 0 0 0 -0.0774009 0 -0 7890 0 0 0 0 0 0 0 0 0 0 0 0 
1 108 0.096 0.224 0 0 0 0 0 -0.0774009 0 -0 7890 0 0 0 0 0 0 0 0 0 0 0 0 
1 109 0.097 0.224 0 0 0 0 0 -0.0774009 0 -0 7890 0 0 0 0 0 0 0 0 0 0 0 0 
1 110 0.098 0.224 0 0 0 0 0 -0.0774009 0 -0 7890 0 0 0 0 0 0 0 0 0 0 0 0 
1 111 0.099 0.224 0 0 0 0 0 -0.0774009 0 -0 7890 0 0 0 0 0 0 0 0 0 0 0 0 
1 112 0.1 0.224 0 0 0 0 0 -0.0774009 0 -0 7890 0 0 0 0 0 0 0 0 0 0 0 0 
1 113 0.101 0.224 0 0 0 0 0 -0.0774009 0 -0 7890 0 0 0 0 0 0 0 0 0 0 0 0 
1 114 0.102 0.224 0 0 0 0 0 -0.0774009 0 -0 7890 0 0 0 0 0 0 0 0 0 0 0 0 
1 115 0.103 0.224 0 0 0 0 0 -0.0774009 0 -0 7890 0 0 0 0 0 0 0 0 0 0 0 0 
1 116 0.104 0.224 0 0 0 0 0 -0.0774009 0 -0 7890 0 0 0 0 0 0 0 0 0 0 0 0 
1 117 0.105 0.224 0 0 0 0 0 -0.0774009 0 -0 7890 0 0 0 0 0 0 0 0 0 0 0 0 
1 118 0.106 0.224 0 0 0 0 0 -0.0774009 0 -0 7890 0 0 0 0 0 0 0 0 0 0 0 0 
1 119 0.107 0.224 0 0 0 0 0 -0.0774009 0 -0 7890 0 0 0 0 0 0 0 0 0 0 0 0 
1 120 0.108 0.224 0 0 0 0 0 -0.0774009 0 -0 7890 0 0 0 0 0 0 0 0 0 0 0 0 
1 121 0.109 0.224 0 0 0 0 0 -0.0774009 0 -0 7890 0 0 0 0 0 0 0 0 0 0 0 0 
1 122 0.11 0.224 0 0 0 0 0 -0.0774009 0 -0 7890 0 0 0 0 0 0 0 0 0 0 0 0 
1 123 0.111 0.224 0 0 0 0 0 -0.0774009 0 -0 7890 0 0 0 0 0 0 0 0 0 0 0 0 
1 124 0.112 0.224 0 0 0 0 0 -0.0774009 0 -0 7890 0 0 0 0 0 0 0 0 0 0 0 0 
1 125 0.113 0.224 0 0 0 0 0 -0.0774009 0 -0 7890 0 0 0 0 0 0 0 0 0 0 0 0 
1 126 0.114 0.224 0 0 0 0 0 -0.0774009 0 -0 7890 0 0 0 0 0 0 0 0 0 0 0 0 
1 127 0.115 0.224 0 0 0 0 0 -0.0774009 0 -0 7890 0 0 0 0 0 0 0 0 0 0 0 0 
1 128 0.116 0.224 0 0 0 0 0 -0.0774009 0 -0 7890 0 0 0 0 0 0 0 0 0 0 0 0 
1 129 0.082 0.225 0 0 0 0 0 -0.0774009 0 -0 7890 0 0 0 0 0 0 0 0 0 0 0 0 
1 166 0.081 0.226 0 0 0 0 0 -0.0774009 0 -0 7890 0 0 0 0 0 0 0 0 0 0 0 0 
1 167 0.082 0.226 0 0 0 0 0 -0.0774009 0 -0 7890 0 0 0 0 0 0 0 0 0 0 0 0 
1 130 0.083 0.225 0 0 0 0 0 -0.0774009 0 -0 7890 0 0 0 0 0 0 0 0 0 0 0 0 
1 168 0.083 0.226 0 0 0 0 0 -0.0774009 0 -0 7890 0 0 0 0 0 0 0 0 0 0 0 0 
1 131 0.084 0.225 0 0 0 0 0 -0.0774009 0 -0 7890 0 0 0 0 0 0 0 0 0 0 0 0 
1 132 0.085 0.225 0 0 0 0 0 -0.0774009 0 -0 7890 0 0 0 0 0 0 0 0 0 0 0 0 
1 169 0.084 0.226 0 0 0 0 0 -0.0774009 0 -0 7890 0 0 0 0 0 0 0 0 0 0 0 0 
1 170 0.085 0.226 0 0 0 0 0 -0.0774009 0 -0 7890 0 0 0 0 0 0 0 0 0 0 0 0 
1 133 0.086 0.225 0 0 0 0 0 -0.0774009 0 -0 7890 0 0 0 0 0 0 0 0 0 0 0 0 
1 134 0.087 0.225 0 0 0 0 0 -0.0774009 0 -0 7890 0 0 0 0 0 0 0 0 0 0 0 0 
1 171 0.086 0.226 0 0 0 0 0 -0.0774009 0 -0 7890 0 0 0 0 0 0 0 0 0 0 0 0 
1 172 0.087 0.226 0 0 0 0 0 -0.0774009 0 -0 7890 0 0 0 0 0 0 0 0 0 0 0 0 
1 135 0.088 0.225 0 0 0 0 0 -0.0774009 0 -0 7890 0 0 0 0 0 0 0 0 0 0 0 0 
1 173 0.088 0.226 0 0 0 0 0 -0.0774009 0 -0 7890 0 0 0 0 0 0 0 0 0 0 0 0 
1 136 0.089 0.225 0 0 0 0 0 -0.0774009 0 -0 7890 0 0 0 0 0 0 0 0 0 0 0 0 
1 137 0.09 0.225 0 0 0 0 0 -0.0774009 0 -0 7890 0 0 0 0 0 0 0 0 0 0 0 0 
1 174 0.089 0.226 0 0 0 0 0 -0.0774009 0 -0 7890 0 0 0 0 0 0 0 0 0 0 0 0 
1 175 0.09 0.226 0 0 0 0 0 -0.0774009 0 -0 7890 0 0 0 0 0 0 0 0 0 0 0 0 
1 138 0.091 0.225 0 0 0 0 0 -0.0774009 0 -0 7890 0 0 0 0 0 0 0 0 0 0 0 0 
1 176 0.091 0.226 0 0 0 0 0 -0.0774009 0 -0 7890 0 0 0 0 0 0 0 0 0 0 0 0 
1 139 0.092 0.225 0 0 0 0 0 -0.0774009 0 -0 7890 0 0 0 0 0 0 0 0 0 0 0 0 
1 140 0.093 0.225 0 0 0 0 0 -0.0774009 0 -0 7890 0 0 0 0 0 0 0 0 0 0 0 0 
1 177 0.092 0.226 0 0 0 0 0 -0.0774009 0 -0 7890 0 0 0 0 0 0 0 0 0 0 0 0 
1 178 0.093 0.226 0 0 0 0 0 -0.0774009 0 -0 7890 0 0 0 0 0 0 0 0 0 0 0 0 
1 141 0.094 0.225 0 0 0 0 0 -0.0774009 0 -0 7890 0 0 0 0 0 0 0 0 0 0 0 0 
1 179 0.094 0.226 0 0 0 0 0 -0.0774009 0 -0 7890 0 0 0 0 0 0 0 0 0 0 0 0 
1 142 0.095 0.225 0 0 0 0 0 -0.0774009 0 -0 7890 0 0 0 0 0 0 0 0 0 0 0 0 
1 143 0.096 0.225 0 0 0 0 0 -0.0774009 0 -0 7890 0 0 0 0 0 0 0 0 0 0 0 0 
1 180 0.095 0.226 0 0 0 0 0 -0.0774009 0 -0 7890 0 0 0 0 0 0 0 0 0 0 0 0 
1 181 0.096 0.226 0 0 0 0 0 -0.0774009 0 -0 7890 0 0 0 0 0 0 0 0 0 0 0 0 
1 144 0.097 0.225 0 0 0 0 0 -0.0774009 0 -0 7890 0 0 0 0 0 0 0 0 0 0 0 0 
1 182 0.097 0.226 0 0 0 0 0 -0.0774009 0 -0 7890 0 0 0 0 0 0 0 0 0 0 0 0 
1 145 0.098 0.225 0 0 0 0 0 -0.0774009 0 -0 7890 0 0 0 0 0 0 0 0 0 0 0 0 
1 146 0.099 0.225 0 0 0 0 0 -0.0774009 0 -0 7890 0 0 0 0 0 0 0 0 0 0 0 0 
1 183 0.098 0.226 0 0 0 0 0 -0.0774009 0 -0 7890 0 0 0 0 0 0 0 0 0 0 0 0 
1 184 0.099 0.226 0 0 0 0 0 -0.0774009 0 -0 7890 0 0 0 0 0 0 0 0 0 0 0 0 
1 147 0.1 0.225 0 0 0 0 0 -0.0774009 0 -0 7890 0 0 0 0 0 0 0 0 0 0 0 0 
1 185 0.1 0.226 0 0 0 0 0 -0.0774009 0 -0 7890 0 0 0 0 0 0 0 0 0 0 0 0 
1 148 0.101 0.225 0 0 0 0 0 -0.0774009 0 -0 7890 0 0 0 0 0 0 0 0 0 0 0 0 
1 149 0.102 0.225 0 0 0 0 0 -0.0774009 0 -0 7890 0 0 0 0 0 0 0 0 0 0 0 0 
1 186 0.101 0.226 0 0 0 0 0 -0.0774009 0 -0 7890 0 0 0 0 0 0 0 0 0 0 0 0 
1 187 0.102 0.226 0 0 0 0 0 -0.0774009 0 -0 7890 0 0 0 0 0 0 0 0 0 0 0 0 
1 150 0.103 0.225 0 0 0 0 0 -0.0774009 0 -0 7890 0 0 0 0 0 0 0 0 0 0 0 0 
1 188 0.103 0.226 0 0 0 0 0 -0.0774009 0 -0 7890 0 0 0 0 0 0 0 0 0 0 0 0 
1 151 0.104 0.225 0 0 0 0 0 -0.0774009 0 -0 7890 0 0 0 0 0 0 0 0 0 0 0 0 
1 152 0.105 0.225 0 0 0 0 0 -0.0774009 0 -0 7890 0 0 0 0 0 0 0 0 0 0 0 0 
1 189 0.104 0.226 0 0 0 0 0 -0.0774009 0 -0 7890 0 0 0 0 0 0 0 0 0 0 0 0 
1 190 0.105 0.226 0 0 0 0 0 -0.0774009 0 -0 7890 0 0 0 0 0 0 0 0 0 0 0 0 
1 153 0.106 0.225 0 0 0 0 0 -0.0774009 0 -0 7890 0 0 0 0 0 0 0 0 0 0 0 0 
1 191 0.106 0.226 0 0 0 0 0 -0.0774009 0 -0 7890 0 0 0 0 0 0 0 0 0 0 0 0 
1 154 0.107 0.225 0 0 0 0 0 -0.0774009 0 -0 7890 0 0 0 0 0 0 0 0 0 0 0 0 
1 155 0.108 0.225 0 0 0 0 0 -0.0774009 0 -0 7890 0 0 0 0 0 0 0 0 0 0 0 0 
1 192 0.107 0.226 0 0 0 0 0 -0.0774009 0 -0 7890 0 0 0 0 0 0 0 0 0 0 0 0 
1 193 0.108 0.226 0 0 0 0 0 -0.0774009 0 -0 7890 0 0 0 0 0 0 0 0 0 0 0 0 
1 156 0.109 0.225 0 0 0 0 0 -0.0774009 0 -0 7890 0 0 0 0 0 0 0 0 0 0 0 0 
1 194 0.109 0.226 0 0 0 0 0 -0.0774009 0 -0 7890 0 0 0 0 0 0 0 0 0 0 0 0 
1 157 0.11 0.225 0 0 0 0 0 -0.0774009 0 -0 7890 0 0 0 0 0 0 0 0 0 0 0 0 
1 158 0.111 0.225 0 0 0 0 0 -0.0774009 0 -0 7890 0 0 0 0 0 0 0 0 0 0 0 0 
1 195 0.11 0.226 0 0 0 0 0 -0.0774009 0 -0 7890 0 0 0 0 0 0 0 0 0 0 0 0 
1 196 0.111 0.226 0 0 0 0 0 -0.0774009 0 -0 7890 0 0 0 0 0 0 0 0 0 0 0 0 
1 159 0.112 0.225 0 0 0 0 0 -0.0774009 0 -0 7890 0 0 0 0 0 0 0 0 0 0 0 0 
1 197 0.112 0.226 0 0 0 0 0 -0.0774009 0 -0 7890 0 0 0 0 0 0 0 0 0 0 0 0 
1 160 0.113 0.225 0 0 0 0 0 -0.0774009 0 -0 7890 0 0 0 0 0 0 0 0 0 0 0 0 
1 161 0.114 0.225 0 0 0 0 0 -0.0774009 0 -0 7890 0 0 0 0 0 0 0 0 0 0 0 0 
1 198 0.113 0.226 0 0 0 0 0 -0.0774009 0 -0 7890 0 0 0 0 0 0 0 0 0 0 0 0 
1 199 0.114 0.226 0 0 0 0 0 -0.0774009 0 -0 7890 0 0 0 0 0 0 0 0 0 0 0 0 
1 162 0.115 0.225 0 0 0 0 0 -0.0774009 0 -0 7890 0 0 0 0 0 0 0 0 0 0 0 0 
1 163 0.116 0.225 0 0 0 0 0 -0.0774009 0 -0 7890 0 0 0 0 0 0 0 0 0 0 0 0 
1 200 0.115 0.226 0 0 0 0 0 -0.0774009 0 -0 7890 0 0 0 0 0 0 0 0 0 0 0 0 
1 201 0.116 0.226 0 0 0 0 0 -0.0774009 0 -0 7890 0 0 0 0 0 0 0 0 0 0 0 0 
1 164 0.117 0.225 0 0 0 0 0 -0.0774009 0 -0 7890 0 0 0 0 0 0 0 0 0 0 0 0 
1 202 0.117 0.226 0 0 0 0 0 -0.0774009 0 -0 7890 0 0 0 0 0 0 0 0 0 0 0 0 
1 165 0.118 0.225 0 0 0 0 0 -0.0774009 0 -0 7890 0 0 0 0 0 0 0 0 0 0 0 0 
1 203 0.118 0.226 0 0 0 0 0 -0.0774009 0 -0 7890 0 0 0 0 0 0 0 0 0 0 0 0 
1 204 0.119 0.226 0 0 0 0 0 -0.0774009 0 -0 7890 0 0 0 0 0 0 0 0 0 0 0 0 
1 205 0.08 0.227 0 0 0 0 0 -0.0774009 0 -0 7890 0 0 0 0 0 0 0 0 0 0 0 0 
1 206 0.081 0.227 0 0 0 0 0 -0.0774009 0 -0 7890 0 0 0 0 0 0 0 0 0 0 0 0 
1 207 0.082 0.227 0 0 0 0 0 -0.0774009 0 -0 7890 0 0 0 0 0 0 0 0 0 0 0 0 
1 208 0.083 0.227 0 0 0 0 0 -0.0774009 0 -0 7890 0 0 0 0 0 0 0 0 0 0 0 0 
1 209 0.084 0.227 0 0 0 0 0 -0.0774009 0 -0 7890 0 0 0 0 0 0 0 0 0 0 0 0 
1 210 0.085 0.227 0 0 0 0 0 -0.0774009 0 -0 7890 0 0 0 0 0 0 0 0 0 0 0 0 
1 211 0.086 0.227 0 0 0 0 0 -0.0774009 0 -0 7890 0 0 0 0 0 0 0 0 0 0 0 0 
1 212 0.087 0.227 0 0 0 0 0 -0.0774009 0 -0 7890 0 0 0 0 0 0 0 0 0 0 0 0 
1 213 0.088 0.227 0 0 0 0 0 -0.0774009 0 -0 7890 0 0 0 0 0 0 0 0 0 0 0 0 
1 214 0.089 0.227 0 0 0 0 0 -0.0774009 0 -0 7890 0 0 0 0 0 0 0 0 0 0 0 0 
1 215 0.09 0.227 0 0 0 0 0 -0.0774009 0 -0 7890 0 0 0 0 0 0 0 0 0 0 0 0 
1 216 0.091 0.227 0 0 0 0 0 -0.0774009 0 -0 7890 0 0 0 0 0 0 0 0 0 0 0 0 
1 217 0.092 0.227 0 0 0 0 0 -0.0774009 0 -0 7890 0 0 0 0 0 0 0 0 0 0 0 0 
1 218 0.093 0.227 0 0 0 0 0 -0.0774009 0 -0 7890 0 0 0 0 0 0 0 0 0 0 0 0 
1 219 0.094 0.227 0 0 0 0 0 -0.0774009 0 -0 7890 0 0 0 0 0 0 0 0 0 0 0 0 
1 220 0.095 0.227 0 0 0 0 0 -0.0774009 0 -0 7890 0 0 0 0 0 0 0 0 0 0 0 0 
1 221 0.096 0.227 0 0 0 0 0 -0.0774009 0 -0 7890 0 0 0 0 0 0 0 0 0 0 0 0 
1 222 0.097 0.227 0 0 0 0 0 -0.0774009 0 -0 7890 0 0 0 0 0 0 0 0 0 0 0 0 
1 223 0.098 0.227 0 0 0 0 0 -0.0774009 0 -0 7890 0 0 0 0 0 0 0 0 0 0 0 0 
1 224 0.099 0.227 0 0 0 0 0 -0.0774009 0 -0 7890 0 0 0 0 0 0 0 0 0 0 0 0 
1 225 0.1 0.227 0 0 0 0 0 -0.0774009 0 -0 7890 0 0 0 0 0 0 0 0 0 0 0 0 
1 226 0.101 0.227 0 0 0 0 0 -0.0774009 0 -0 7890 0 0 0 0 0 0 0 0 0 0 0 0 
1 227 0.102 0.227 0 0 0 0 0 -0.0774009 0 -0 7890 0 0 0 0 0 0 0 0 0 0 0 0 
1 228 0.103 0.227 0 0 0 0 0 -0.0774009 0 -0 7890 0 0 0 0 0 0 0 0 0 0 0 0 
1 229 0.104 0.227 0 0 0 0 0 -0.0774009 0 -0 7890 0 0 0 0 0 0 0 0 0 0 0 0 
1 230 0.105 0.227 0 0 0 0 0 -0.0774009 0 -0 7890 0 0 0 0 0 0 0 0 0 0 0 0 
1 231 0.106 0.227 0 0 0 0 0 -0.0774009 0 -0 7890 0 0 0 0 0 0 0 0 0 0 0 0 
1 232 0.107 0.227 0 0 0 0 0 -0.0774009 0 -0 7890 0 0 0 0 0 0 0 0 0 0 0 0 
1 233 0.108 0.227 0 0 0 0 0 -0.0774009 0 -0 7890 0 0 0 0 0 0 0 0 0 0 0 0 
1 234 0.109 0.227 0 0 0 0 0 -0.0774009 0 -0 7890 0 0 0 0 0 0 0 0 0 0 0 0 
1 235 0.11 0.227 0 0 0 0 0 -0.0774009 0 -0 7890 0 0 0 0 0 0 0 0 0 0 0 0 
1 236 0.111 0.227 0 0 0 0 0 -0.0774009 0 -0 7890 0 0 0 0 0 0 0 0 0 0 0 0 
1 237 0.112 0.227 0 0 0 0 0 -0.0774009 0 -0 7890 0 0 0 0 0 0 0 0 0 0 0 0 
1 238 0.113 0.227 0 0 0 0 0 -0.0774009 0 -0 7890 0 0 0 0 0 0 0 0 0 0 0 0 
1 239 0.114 0.227 0 0 0 0 0 -0.0774009 0 -0 7890 0 0 0 0 0 0 0 0 0 0 0 0 
1 240 0.115 0.227 0 0 0 0 0 -0.0774009 0 -0 7890 0 0 0 0 0 0 0 0 0 0 0 0 
1 241 0.116 0.227 0 0 0 0 0 -0.0774009 0 -0 7890 0 0 0 0 0 0 0 0 0 0 0 0 
1 242 0.117 0.227 0 0 0 0 0 -0.0774009 0 -0 7890 0 0 0 0 0 0 0 0 0 0 0 0 
1 243 0.118 0.227 0 0 0 0 0 -0.0774009 0 -0 7890 0 0 0 0 0 0 0 0 0 0 0 0 
1 244 0.119 0.227 0 0 0 0 0 -0.0774009 0 -0 7890 0 0 0 0 0 0 0 0 0 0 0 0 
1 245 0.12 0.227 0 0 0 0 0 -0.0774009 0 -0 7890 0 0 0 0 0 0 0 0 0 0 0 0 
1 246 0.079 0.228 0 0 0 0 0 -0.0774009 0 -0 7890 0 0 0 0 0 0 0 0 0 0 0 0 
1 289 0.078 0.229 0 0 0 0 0 -0.0774009 0 -0 7890 0 0 0 0 0 0 0 0 0 0 0 0 
1 290 0.079 0.229 0 0 0 0 0 -0.0774009 0 -0 7890 0 0 0 0 0 0 0 0 0 0 0 0 
1 247 0.08 0.228 0 0 0 0 0 -0.0774009 0 -0 7890 0 0 0 0 0 0 0 0 0 0 0 0 
1 291 0.08 0.229 0 0 0 0 0 -0.0774009 0 -0 7890 0 0 0 0 0 0 0 0 0 0 0 0 
1 248 0.081 0.228 0 0 0 0 0 -0.0774009 0 -0 7890 0 0 0 0 0 0 0 0 0 0 0 0 
1 249 0.082 0.228 0 0 0 0 0 -0.0774009 0 -0 7890 0 0 0 0 0 0 0 0 0 0 0 0 
1 292 0.081 0.229 0 0 0 0 0 -0.0774009 0 -0 7890 0 0 0 0 0 0 0 0 0 0 0 0 
1 293 0.082 0.229 0 0 0 0 0 -0.0774009 0 -0 7890 0 0 0 0 0 0 0 0 0 0 0 0 
1 250 0.083 0.228 0 0 0 0 0 -0.0774009 0 -0 7890 0 0 0 0 0 0 0 0 0 0 0 0 
1 294 0.083 0.229 0 0 0 0 0 -0.0774009 0 -0 7890 0 0 0 0 0 0 0 0 0 0 0 0 
1 251 0.084 0.228 0 0 0 0 0 -0.0774009 0 -0 7890 0 0 0 0 0 0 0 0 0 0 0 0 
1 252 0.085 0.228 0 0 0 0 0 -0.0774009 0 -0 7890 0 0 0 0 0 0 0 0 0 0 0 0 
1 295 0.084 0.229 0 0 0 0 0 -0.0774009 0 -0 7890 0 0 0 0 0 0 0 0 0 0 0 0 
1 296 0.085 0.229 0 0 0 0 0 -0.0774009 0 -0 7890 0 0 0 0 0 0 0 0 0 0 0 0 
1 253 0.086 0.228 0 0 0 0 0 -0.0774009 0 -0 7890 0 0 0 0 0 0 0 0 0 0 0 0 
1 254 0.087 0.228 0 0 0 0 0 -0.0774009 0 -0 7890 0 0 0 0 0 0 0 0 0 0 0 0 
1 297 0.086 0.229 0 0 0 0 0 -0.0774009 0 -0 7890 0 0 0 0 0 0 0 0 0 0 0 0 
1 298 0.087 0.229 0 0 0 0 0 -0.0774009 0 -0 7890 0 0 0 0 0 0 0 0 0 0 0 0 
1 255 0.088 0.228 0 0 0 0 0 -0.0774009 0 -0 7890 0 0 0 0 0 0 0 0 0 0 0 0 
1 299 0.088 0.229 0 0 0 0 0 -0.0774009 0 -0 7890 0 0 0 0 0 0 0 0 0 0 0 0 
1 256 0.089 0.228 0 0 0 0 0 -0.0774009 0 -0 7890 0 0 0 0 0 0 0 0 0 0 0 0 
1 257 0.09 0.228 0 0 0 0 0 -0.0774009 0 -0 7890 0 0 0 0 0 0 0 0 0 0 0 0 
1 300 0.089 0.229 0 0 0 0 0 -0.0774009 0 -0 7890 0 0 0 0 0 0 0 0 0 0 0 0 
1 301 0.09 0.229 0 0 0 0 0 -0.0774009 0 -0 7890 0 0 0 0 0 0 0 0 0 0 0 0 
1 258 0.091 0.228 0 0 0 0 0 -0.0774009 0 -0 7890 0 0 0 0 0 0 0 0 0 0 0 0 
1 302 0.091 0.229 0 0 0 0 0 -0.0774009 0 -0 7890 0 0 0 0 0 0 0 0 0 0 0 0 
1 259 0.092 0.228 0 0 0 0 0 -0.0774009 0 -0 7890 0 0 0 0 0 0 0 0 0 0 0 0 
1 260 0.093 0.228 0 0 0 0 0 -0.0774009 0 -0 7890 0 0 0 0 0 0 0 0 0 0 0 0 
1 303 0.092 0.229 0 0 0 0 0 -0.0774009 0 -0 7890 0 0 0 0 0 0 0 0 0 0 0 0 
1 304 0.093 0.229 0 0 0 0 0 -0.0774009 0 -0 7890 0 0 0 0 0 0 0 0 0 0 0 0 
1 261 0.094 0.228 0 0 0 0 0 -0.0774009 0 -0 7890 0 0 0 0 0 0 0 0 0 0 0 0 
1 305 0.094 0.229 0 0 0 0 0 -0.0774009 0 -0 7890 0 0 0 0 0 0 0 0 0 0 0 0 
1 262 0.095 0.228 0 0 0 0 0 -0.0774009 0 -0 7890 0 0 0 0 0 0 0 0 0 0 0 0 
1 263 0.096 0.228 0 0 0 0 0 -0.0774009 0 -0 7890 0 0 0 0 0 0 0 0 0 0 0 0 
1 306 0.095 0.229 0 0 0 0 0 -0.0774009 0 -0 7890 0 0 0 0 0 0 0 0 0 0 0 0 
1 307 0.096 0.229 0 0 0 0 0 -0.0774009 0 -0 7890 0 0 0 0 0 0 0 0 0 0 0 0 
1 264 0.097 0.228 0 0 0 0 0 -0.0774009 0 -0 7890 0 0 0 0 0 0 0 0 0 0 0 0 
1 308 0.097 0.229 0 0 0 0 0 -0.0774009 0 -0 7890 0 0 0 0 0 0 0 0 0 0 0 0 
1 265 0.098 0.228 0 0 0 0 0 -0.0774009 0 -0 7890 0 0 0 0 0 0 0 0 0 0 0 0 
1 266 0.099 0.228 0 0 0 0 0 -0.0774009 0 -0 7890 0 0 0 0 0 0 0 0 0 0 0 0 
1 309 0.098 0.229 0 0 0 0 0 -0.0774009 0 -0 7890 0 0 0 0 0 0 0 0 0 0 0 0 
1 310 0.099 0.229 0 0 0 0 0 -0.0774009 0 -0 7890 0 0 0 0 0 0 0 0 0 0 0 0 
1 267 0.1 0.228 0 0 0 0 0 -0.0774009 0 -0 7890 0 0 0 0 0 0 0 0 0 0 0 0 
1 311 0.1 0.229 0 0 0 0 0 -0.0774009 0 -0 7890 0 0 0 0 0 0 0 0 0 0 0 0 
1 268 0.101 0.228 0 0 0 0 0 -0.0774009 0 -0 7890 0 0 0 0 0 0 0 0 0 0 0 0 
1 269 0.102 0.228 0 0 0 0 0 -0.0774009 0 -0 7890 0 0 0 0 0 0 0 0 0 0 0 0 
1 312 0.101 0.229 0 0 0 0 0 -0.0774009 0 -0 7890 0 0 0 0 0 0 0 0 0 0 0 0 
1 313 0.102 0.229 0 0 0 0 0 -0.0774009 0 -0 7890 0 0 0 0 0 0 0 0 0 0 0 0 
1 270 0.103 0.228 0 0 0 0 0 -0.0774009 0 -0 7890 0 0 0 0 0 0 0 0 0 0 0 0 
1 314 0.103 0.229 0 0 0 0 0 -0.0774009 0 -0 7890 0 0 0 0 0 0 0 0 0 0 0 0 
1 271 0.104 0.228 0 0 0 0 0 -0.0774009 0 -0 7890 0 0 0 0 0 0 0 0 0 0 0 0 
1 272 0.105 0.228 0 0 0 0 0 -0.0774009 0 -0 7890 0 0 0 0 0 0 0 0 0 0 0 0 
1 315 0.104 0.229 0 0 0 0 0 -0.0774009 0 -0 7890 0 0 0 0 0 0 0 0 0 0 0 0 
1 316 0.105 0.229 0 0 0 0 0 -0.0774009 0 -0 7890 0 0 0 0 0 0 0 0 0 0 0 0 
1 273 0.106 0.228 0 0 0 0 0 -0.0774009 0 -0 7890 0 0 0 0 0 0 0 0 0 0 0 0 
1 317 0.106 0.229 0 0 0 0 0 -0.0774009 0 -0 7890 0 0 0 0 0 0 0 0 0 0 0 0 
1 274 0.107 0.228 0 0 0 0 0 -0.0774009 0 -0 7890 0 0 0 0 0 0 0 0 0 0 0 0 
1 275 0.108 0.228 0 0 0 0 0 -0.0774009 0 -0 7890 0 0 0 0 0 0 0 0 0 0 0 0 
1 318 0.107 0.229 0 0 0 0 0 -0.0774009 0 -0 7890 0 0 0 0 0 0 0 0 0 0 0 0 
1 319 0.108 0.229 0 0 0 0 0 -0.0774009 0 -0 7890 0 0 0 0 0 0 0 0 0 0 0 0 
1 276 0.109 0.228 0 0 0 0 0 -0.0774009 0 -0 7890 0 0 0 0 0 0 0 0 0 0 0 0 
1 320 0.109 0.229 0 0 0 0 0 -0.0774009 0 -0 7890 0 0 0 0 0 0 0 0 0 0 0 0 
1 277 0.11 0.228 0 0 0 0 0 -0.0774009 0 -0 7890 0 0 0 0 0 0 0 0 0 0 0 0 
1 278 0.111 0.228 0 0 0 0 0 -0.0774009 0 -0 7890 0 0 0 0 0 0 0 0 0 0 0 0 
1 321 0.11 0.229 0 0 0 0 0 -0.0774009 0 -0 7890 0 0 0 0 0 0 0 0 0 0 0 0 
1 322 0.111 0.229 0 0 0 0 0 -0.0774009 0 -0 7890 0 0 0 0 0 0 0 0 0 0 0 0 
1 279 0.112 0.228 0 0 0 0 0 -0.0774009 0 -0 7890 0 0 0 0 0 0 0 0 0 0 0 0 
1 323 0.112 0.229 0 0 0 0 0 -0.0774009 0 -0 7890 0 0 0 0 0 0 0 0 0 0 0 0 
1 280 0.113 0.228 0 0 0 0 0 -0.0774009 0 -0 7890 0 0 0 0 0 0 0 0 0 0 0 0 
1 281 0.114 0.228 0 0 0 0 0 -0.0774009 0 -0 7890 0 0 0 0 0 0 0 0 0 0 0 0 
1 324 0.113 0.229 0 0 0 0 0 -0.0774009 0 -0 7890 0 0 0 0 0 0 0 0 0 0 0 0 
1 325 0.114 0.229 0 0 0 0 0 -0.0774009 0 -0 7890 0 0 0 0 0 0 0 0 0 0 0 0 
1 282 0.115 0.228 0 0 0 0 0 -0.0774009 0 -0 7890 0 0 0 0 0 0 0 0 0 0 0 0 
1 283 0.116 0.228 0 0 0 0 0 -0.0774009 0 -0 7890 0 0 0 0 0 0 0 0 0 0 0 0 
1 326 0.115 0.229 0 0 0 0 0 -0.0774009 0 -0 7890 0 0 0 0 0 0 0 0 0 0 0 0 
1 327 0.116 0.229 0 0 0 0 0 -0.0774009 0 -0 7890 0 0 0 0 0 0 0 0 0 0 0 0 
1 284 0.117 0.228 0 0 0 0 0 -0.0774009 0 -0 7890 0 0 0 0 0 0 0 0 0 0 0 0 
1 328 0.117 0.229 0 0 0 0 0 -0.0774009 0 -0 7890 0 0 0 0 0 0 0 0 0 0 0 0 
1 285 0.118 0.228 0 0 0 0 0 -0.0774009 0 -0 7890 0 0 0 0 0 0 0 0 0 0 0 0 
1 286 0.119 0.228 0 0 0 0 0 -0.0774009 0 -0 7890 0 0 0 0 0 0 0 0 0 0 0 0 
1 329 0.118 0.229 0 0 0 0 0 -0.0774009 0 -0 7890 0 0 0 0 0 0 0 0 0 0 0 0 
1 330 0.119 0.229 0 0 0 0 0 -0.0774009 0 -0 7890 0 0 0 0 0 0 0 0 0 0 0 0 
1 287 0.12 0.228 0 0 0 0 0 -0.0774009 0 -0 7890 0 0 0 0 0 0 0 0 0 0 0 0 
1 331 0.12 0.229 0 0 0 0 0 -0.0774009 0 -0 7890 0 0 0 0 0 0 0 0 0 0 0 0 
1 288 0.121 0.228 0 0 0 0 0 -0.0774009 0 -0 7890 0 0 0 0 0 0 0 0 0 0 0 0 
1 332 0.121 0.229 0 0 0 0 0 -0.0774009 0 -0 7890 0 0 0 0 0 0 0 0 0 0 0 0 
1 333 0.122 0.229 0 0 0 0 0 -0.0774009 0 -0 7890 0 0 0 0 0 0 0 0 0 0 0 0 
1 334 0.077 0.23 0 0 0 0 0 -0.0774009 0 -0 7890 0 0 0 0 0 0 0 0 0 0 0 0 
1 335 0.078 0.23 0 0 0 0 0 -0.0774009 0 -0 7890 0 0 0 0 0 0 0 0 0 0 0 0 
1 336 0.079 0.23 0 0 0 0 0 -0.0774009 0 -0 7890 0 0 0 0 0 0 0 0 0 0 0 0 
1 337 0.08 0.23 0 0 0 0 0 -0.0774009 0 -0 7890 0 0 0 0 0 0 0 0 0 0 0 0 
1 338 0.081 0.23 0 0 0 0 0 -0.0774009 0 -0 7890 0 0 0 0 0 0 0 0 0 0 0 0 
1 339 0.082 0.23 0 0 0 0 0 -0.0774009 0 -0 7890 0 0 0 0 0 0 0 0 0 0 0 0 
1 340 0.083 0.23 0 0 0 0 0 -0.0774009 0 -0 7890 0 0 0 0 0 0 0 0 0 0 0 0 
1 341 0.084 0.23 0 0 0 0 0 -0.0774009 0 -0 7890 0 0 0 0 0 0 0 0 0 0 0 0 
1 342 0.085 0.23 0 0 0 0 0 -0.0774009 0 -0 7890 0 0 0 0 0 0 0 0 0 0 0 0 
1 343 0.086 0.23 0 0 0 0 0 -0.0774009 0 -0 7890 0 0 0 0 0 0 0 0 0 0 0 0 
1 344 0.087 0.23 0 0 0 0 0 -0.0774009 0 -0 7890 0 0 0 0 0 0 0 0 0 0 0 0 
1 345 0.088 0.23 0 0 0 0 0 -0.0774009 0 -0 7890 0 0 0 0 0 0 0 0 0 0 0 0 
1 346 0.089 0.23 0 0 0 0 0 -0.0774009 0 -0 7890 0 0 0 0 0 0 0 0 0 0 0 0 
1 347 0.09 0.23 0 0 0 0 0 -0.0774009 0 -0 7890 0 0 0 0 0 0 0 0 0 0 0 0 
1 348 0.091 0.23 0 0 0 0 0 -0.0774009 0 -0 7890 0 0 0 0 0 0 0 0 0 0 0 0 
1 349 0.092 0.23 0 0 0 0 0 -0.0774009 0 -0 7890 0 0 0 0 0 0 0 0 0 0 0 0 
1 350 0.093 0.23 0 0 0 0 0 -0.0774009 0 -0 7890 0 0 0 0 0 0 0 0 0 0 0 0 
1 351 0.094 0.23 0 0 0 0 0 -0.0774009 0 -0 7890 0 0 0 0 0 0 0 0 0 0 0 0 
1 352 0.095 0.23 0 0 0 0 0 -0.0774009 0 -0 7890 0 0 0 0 0 0 0 0 0 0 0 0 
1 353 0.096 0.23 0 0 0 0 0 -0.0774009 0 -0 7890 0 0 0 0 0 0 0 0 0 0 0 0 
1 354 0.097 0.23 0 0 0 0 0 -0.0774009 0 -0 7890 0 0 0 0 0 0 0 0 0 0 0 0 
1 355 0.098 0.23 0 0 0 0 0 -0.0774009 0 -0 7890 0 0 0 0 0 0 0 0 0 0 0 0 
1 356 0.099 0.23 0 0 0 0 0 -0.0774009 0 -0 7890 0 0 0 0 0 0 0 0 0 0 0 0 
1 357 0.1 0.23 0 0 0 0 0 -0.0774009 0 -0 7890 0 0 0 0 0 0 0 0 0 0 0 0 
1 358 0.101 0.23 0 0 0 0 0 -0.0774009 0 -0 7890 0 0 0 0 0 0 0 0 0 0 0 0 
1 359 0.102 0.23 0 0 0 0 0 -0.0774009 0 -0 7890 0 0 0 0 0 0 0 0 0 0 0 0 
1 360 0.103 0.23 0 0 0 0 0 -0.0774009 0 -0 7890 0 0 0 0 0 0 0 0 0 0 0 0 
1 361 0.104 0.23 0 0 0 0 0 -0.0774009 0 -0 7890 0 0 0 0 0 0 0 0 0 0 0 0 
1 362 0.105 0.23 0 0 0 0 0 -0.0774009 0 -0 7890 0 0 0 0 0 0 0 0 0 0 0 0 
1 363 0.106 0.23 0 0 0 0 0 -0.0774009 0 -0 7890 0 0 0 0 0 0 0 0 0 0 0 0 
1 364 0.107 0.23 0 0 0 0 0 -0.0774009 0 -0 7890 0 0 0 0 0 0 0 0 0 0 0 0 
1 365 0.108 0.23 0 0 0 0 0 -0.0774009 0 -0 7890 0 0 0 0 0 0 0 0 0 0 0 0 
1 366 0.109 0.23 0 0 0 0 0 -0.0774009 0 -0 7890 0 0 0 0 0 0 0 0 0 0 0 0 
1 367 0.11 0.23 0 0 0 0 0 -0.0774009 0 -0 7890 0 0 0 0 0 0 0 0 0 0 0 0 
1 368 0.111 0.23 0 0 0 0 0 -0.0774009 0 -0 7890 0 0 0 0 0 0 0 0 0 0 0 0 
1 369 0.112 0.23 0 0 0 0 0 -0.0774009 0 -0 7890 0 0 0 0 0 0 0 0 0 0 0 0 
1 370 0.113 0.23 0 0 0 0 0 -0.0774009 0 -0 7890 0 0 0 0 0 0 0 0 0 0 0 0 
1 371 0.114 0.23 0 0 0 0 0 -0.0774009 0 -0 7890 0 0 0 0 0 0 0 0 0 0 0 0 
1 372 0.115 0.23 0 0 0 0 0 -0.0774009 0 -0 7890 0 0 0 0 0 0 0 0 0 0 0 0 
1 373 0.116 0.23 0 0 0 0 0 -0.0774009 0 -0 7890 0 0 0 0 0 0 0 0 0 0 0 0 
1 374 0.117 0.23 0 0 0 0 0 -0.0774009 0 -0 7890 0 0 0 0 0 0 0 0 0 0 0 0 
1 375 0.118 0.23 0 0 0 0 0 -0.0774009 0 -0 7890 0 0 0 0 0 0 0 0 0 0 0 0 
1 376 0.119 0.23 0 0 0 0 0 -0.0774009 0 -0 7890 0 0 0 0 0 0 0 0 0 0 0 0 
1 377 0.12 0.23 0 0 0 0 0 -0.0774009 0 -0 7890 0 0 0 0 0 0 0 0 0 0 0 0 
1 378 0.121 0.23 0 0 0 0 0 -0.0774009 0 -0 7890 0 0 0 0 0 0 0 0 0 0 0 0 
1 379 0.122 0.23 0 0 0 0 0 -0.0774009 0 -0 7890 0 0 0 0 0 0 0 0 0 0 0 0 
1 380 0.123 0.23 0 0 0 0 0 -0.0774009 0 -0 7890 0 0 0 0 0 0 0 0 0 0 0 0 
1 381 0.076 0.231 0 0 0 0 0 -0.0774009 0 -0 7890 0 0 0 0 0 0 0 0 0 0 0 0 
1 430 0.075 0.232 0 0 0 0 0 -0.0774009 0 -0 7890 0 0 0 0 0 0 0 0 0 0 0 0 
1 431 0.076 0.232 0 0 0 0 0 -0.0774009 0 -0 7890 0 0 0 0 0 0 0 0 0 0 0 0 
1 382 0.077 0.231 0 0 0 0 0 -0.0774009 0 -0 7890 0 0 0 0 0 0 0 0 0 0 0 0 
1 432 0.077 0.232 0 0 0 0 0 -0.0774009 0 -0 7890 0 0 0 0 0 0 0 0 0 0 0 0 
1 383 0.078 0.231 0 0 0 0 0 -0.0774009 0 -0 7890 0 0 0 0 0 0 0 0 0 0 0 0 
1 384 0.079 0.231 0 0 0 0 0 -0.0774009 0 -0 7890 0 0 0 0 0 0 0 0 0 0 0 0 
1 433 0.078 0.232 0 0 0 0 0 -0.0774009 0 -0 7890 0 0 0 0 0 0 0 0 0 0 0 0 
1 434 0.079 0.232 0 0 0 0 0 -0.0774009 0 -0 7890 0 0 0 0 0 0 0 0 0 0 0 0 
1 385 0.08 0.231 0 0 0 0 0 -0.0774009 0 -0 7890 0 0 0 0 0 0 0 0 0 0 0 0 
1 435 0.08 0.232 0 0 0 0 0 -0.0774009 0 -0 7890 0 0 0 0 0 0 0 0 0 0 0 0 
1 386 0.081 0.231 0 0 0 0 0 -0.0774009 0 -0 7890 0 0 0 0 0 0 0 0 0 0 0 0 
1 387 0.082 0.231 0 0 0 0 0 -0.0774009 0 -0 7890 0 0 0 0 0 0 0 0 0 0 0 0 
1 436 0.081 0.232 0 0 0 0 0 -0.0774009 0 -0 7890 0 0 0 0 0 0 0 0 0 0 0 0 
1 437 0.082 0.232 0 0 0 0 0 -0.0774009 0 -0 7890 0 0 0 0 0 0 0 0 0 0 0 0 
1 388 0.083 0.231 0 0 0 0 0 -0.0774009 0 -0 7890 0 0 0 0 0 0 0 0 0 0 0 0 
1 438 0.083 0.232 0 0 0 0 0 -0.0774009 0 -0 7890 0 0 0 0 0 0 0 0 0 0 0 0 
1 389 0.084 0.231 0 0 0 0 0 -0.0774009 0 -0 7890 0 0 0 0 0 0 0 0 0 0 0 0 
1 390 0.085 0.231 0 0 0 0 0 -0.0774009 0 -0 7890 0 0 0 0 0 0 0 0 0 0 0 0 
1 439 0.084 0.232 0 0 0 0 0 -0.0774009 0 -0 7890 0 0 0 0 0 0 0 0 0 0 0 0 
1 440 0.085 0.232 0 0 0 0 0 -0.0774009 0 -0 7890 0 0 0 0 0 0 0 0 0 0 0 0 
1 391 0.086 0.231 0 0 0 0 0 -0.0774009 0 -0 7890 0 0 0 0 0 0 0 0 0 0 0 0 
1 392 0.087 0.231 0 0 0 0 0 -0.0774009 0 -0 7890 0 0 0 0 0 0 0 0 0 0 0 0 
1 441 0.086 0.232 0 0 0 0 0 -0.0774009 0 -0 7890 0 0 0 0 0 0 0 0 0 0 0 0 